+ 0 /NodeList/2/DeviceList/0/$ns3::WimaxNetDevice/BroadcastConnection/TxQueue/Enqueue ns3::ManagementMessageType ( management message type = 2) ns3::DlMap ( dcd count = 1, base station id = 00:00:00:00:00:03, number of dl-map elements = 1)
+ 0 /NodeList/2/DeviceList/0/$ns3::WimaxNetDevice/BroadcastConnection/TxQueue/Enqueue ns3::ManagementMessageType ( management message type = 3) ns3::UlMap ( ucd count = 1, allocation start time = 14560, number of ul-map elements = 1)
+ 0 /NodeList/2/DeviceList/0/$ns3::WimaxNetDevice/BroadcastConnection/TxQueue/Enqueue ns3::ManagementMessageType ( management message type = 1) ns3::Dcd ( configuration change count = 1, number of dl burst profiles = 0)
+ 0 /NodeList/2/DeviceList/0/$ns3::WimaxNetDevice/BroadcastConnection/TxQueue/Enqueue ns3::ManagementMessageType ( management message type = 0) ns3::Ucd ( configuration change count = 1, ranging backoff start = 3, ranging backoff end = 6, request backoff start = 3, request backoff end = 6, number of ul burst profiles = 0)
- 0 /NodeList/2/DeviceList/0/$ns3::WimaxNetDevice/BroadcastConnection/TxQueue/Dequeue ns3::MacHeaderType ( header type = 0) ns3::GenericMacHeader ( ec (encryption control) = 0, type = 0, ci (crc indicator) = 0, eks (encryption key sequence) = 0, len (length) = 20, cid = 65535, hcs (header check sequence) = 45) ns3::ManagementMessageType ( management message type = 2) ns3::DlMap ( dcd count = 1, base station id = 00:00:00:00:00:03, number of dl-map elements = 1)
- 0 /NodeList/2/DeviceList/0/$ns3::WimaxNetDevice/BroadcastConnection/TxQueue/Dequeue ns3::MacHeaderType ( header type = 0) ns3::GenericMacHeader ( ec (encryption control) = 0, type = 0, ci (crc indicator) = 0, eks (encryption key sequence) = 0, len (length) = 22, cid = 65535, hcs (header check sequence) = 251) ns3::ManagementMessageType ( management message type = 3) ns3::UlMap ( ucd count = 1, allocation start time = 14560, number of ul-map elements = 1)
- 0 /NodeList/2/DeviceList/0/$ns3::WimaxNetDevice/BroadcastConnection/TxQueue/Dequeue ns3::MacHeaderType ( header type = 0) ns3::GenericMacHeader ( ec (encryption control) = 0, type = 0, ci (crc indicator) = 0, eks (encryption key sequence) = 0, len (length) = 59, cid = 65535, hcs (header check sequence) = 41) ns3::ManagementMessageType ( management message type = 1) ns3::Dcd ( configuration change count = 1, number of dl burst profiles = 0)
- 0 /NodeList/2/DeviceList/0/$ns3::WimaxNetDevice/BroadcastConnection/TxQueue/Dequeue ns3::MacHeaderType ( header type = 0) ns3::GenericMacHeader ( ec (encryption control) = 0, type = 0, ci (crc indicator) = 0, eks (encryption key sequence) = 0, len (length) = 50, cid = 65535, hcs (header check sequence) = 19) ns3::ManagementMessageType ( management message type = 0) ns3::Ucd ( configuration change count = 1, ranging backoff start = 3, ranging backoff end = 6, request backoff start = 3, request backoff end = 6, number of ul burst profiles = 0)
+ 0.0101111 /NodeList/2/DeviceList/0/$ns3::WimaxNetDevice/BroadcastConnection/TxQueue/Enqueue ns3::ManagementMessageType ( management message type = 2) ns3::DlMap ( dcd count = 1, base station id = 00:00:00:00:00:03, number of dl-map elements = 1)
+ 0.0101111 /NodeList/2/DeviceList/0/$ns3::WimaxNetDevice/BroadcastConnection/TxQueue/Enqueue ns3::ManagementMessageType ( management message type = 3) ns3::UlMap ( ucd count = 2, allocation start time = 14560, number of ul-map elements = 1)
+ 0.0101111 /NodeList/2/DeviceList/0/$ns3::WimaxNetDevice/BroadcastConnection/TxQueue/Enqueue ns3::ManagementMessageType ( management message type = 0) ns3::Ucd ( configuration change count = 2, ranging backoff start = 3, ranging backoff end = 6, request backoff start = 3, request backoff end = 6, number of ul burst profiles = 0)
- 0.0101111 /NodeList/2/DeviceList/0/$ns3::WimaxNetDevice/BroadcastConnection/TxQueue/Dequeue ns3::MacHeaderType ( header type = 0) ns3::GenericMacHeader ( ec (encryption control) = 0, type = 0, ci (crc indicator) = 0, eks (encryption key sequence) = 0, len (length) = 20, cid = 65535, hcs (header check sequence) = 45) ns3::ManagementMessageType ( management message type = 2) ns3::DlMap ( dcd count = 1, base station id = 00:00:00:00:00:03, number of dl-map elements = 1)
- 0.0101111 /NodeList/2/DeviceList/0/$ns3::WimaxNetDevice/BroadcastConnection/TxQueue/Dequeue ns3::MacHeaderType ( header type = 0) ns3::GenericMacHeader ( ec (encryption control) = 0, type = 0, ci (crc indicator) = 0, eks (encryption key sequence) = 0, len (length) = 22, cid = 65535, hcs (header check sequence) = 251) ns3::ManagementMessageType ( management message type = 3) ns3::UlMap ( ucd count = 2, allocation start time = 14560, number of ul-map elements = 1)
- 0.0101111 /NodeList/2/DeviceList/0/$ns3::WimaxNetDevice/BroadcastConnection/TxQueue/Dequeue ns3::MacHeaderType ( header type = 0) ns3::GenericMacHeader ( ec (encryption control) = 0, type = 0, ci (crc indicator) = 0, eks (encryption key sequence) = 0, len (length) = 50, cid = 65535, hcs (header check sequence) = 19) ns3::ManagementMessageType ( management message type = 0) ns3::Ucd ( configuration change count = 2, ranging backoff start = 3, ranging backoff end = 6, request backoff start = 3, request backoff end = 6, number of ul burst profiles = 0)
+ 0.0202222 /NodeList/2/DeviceList/0/$ns3::WimaxNetDevice/BroadcastConnection/TxQueue/Enqueue ns3::ManagementMessageType ( management message type = 2) ns3::DlMap ( dcd count = 1, base station id = 00:00:00:00:00:03, number of dl-map elements = 1)
+ 0.0202222 /NodeList/2/DeviceList/0/$ns3::WimaxNetDevice/BroadcastConnection/TxQueue/Enqueue ns3::ManagementMessageType ( management message type = 3) ns3::UlMap ( ucd count = 2, allocation start time = 14560, number of ul-map elements = 1)
- 0.0202222 /NodeList/2/DeviceList/0/$ns3::WimaxNetDevice/BroadcastConnection/TxQueue/Dequeue ns3::MacHeaderType ( header type = 0) ns3::GenericMacHeader ( ec (encryption control) = 0, type = 0, ci (crc indicator) = 0, eks (encryption key sequence) = 0, len (length) = 20, cid = 65535, hcs (header check sequence) = 45) ns3::ManagementMessageType ( management message type = 2) ns3::DlMap ( dcd count = 1, base station id = 00:00:00:00:00:03, number of dl-map elements = 1)
- 0.0202222 /NodeList/2/DeviceList/0/$ns3::WimaxNetDevice/BroadcastConnection/TxQueue/Dequeue ns3::MacHeaderType ( header type = 0) ns3::GenericMacHeader ( ec (encryption control) = 0, type = 0, ci (crc indicator) = 0, eks (encryption key sequence) = 0, len (length) = 22, cid = 65535, hcs (header check sequence) = 251) ns3::ManagementMessageType ( management message type = 3) ns3::UlMap ( ucd count = 2, allocation start time = 14560, number of ul-map elements = 1)
+ 0.0303333 /NodeList/2/DeviceList/0/$ns3::WimaxNetDevice/BroadcastConnection/TxQueue/Enqueue ns3::ManagementMessageType ( management message type = 2) ns3::DlMap ( dcd count = 1, base station id = 00:00:00:00:00:03, number of dl-map elements = 1)
+ 0.0303333 /NodeList/2/DeviceList/0/$ns3::WimaxNetDevice/BroadcastConnection/TxQueue/Enqueue ns3::ManagementMessageType ( management message type = 3) ns3::UlMap ( ucd count = 3, allocation start time = 14560, number of ul-map elements = 1)
+ 0.0303333 /NodeList/2/DeviceList/0/$ns3::WimaxNetDevice/BroadcastConnection/TxQueue/Enqueue ns3::ManagementMessageType ( management message type = 0) ns3::Ucd ( configuration change count = 3, ranging backoff start = 3, ranging backoff end = 6, request backoff start = 3, request backoff end = 6, number of ul burst profiles = 0)
- 0.0303333 /NodeList/2/DeviceList/0/$ns3::WimaxNetDevice/BroadcastConnection/TxQueue/Dequeue ns3::MacHeaderType ( header type = 0) ns3::GenericMacHeader ( ec (encryption control) = 0, type = 0, ci (crc indicator) = 0, eks (encryption key sequence) = 0, len (length) = 20, cid = 65535, hcs (header check sequence) = 45) ns3::ManagementMessageType ( management message type = 2) ns3::DlMap ( dcd count = 1, base station id = 00:00:00:00:00:03, number of dl-map elements = 1)
- 0.0303333 /NodeList/2/DeviceList/0/$ns3::WimaxNetDevice/BroadcastConnection/TxQueue/Dequeue ns3::MacHeaderType ( header type = 0) ns3::GenericMacHeader ( ec (encryption control) = 0, type = 0, ci (crc indicator) = 0, eks (encryption key sequence) = 0, len (length) = 22, cid = 65535, hcs (header check sequence) = 251) ns3::ManagementMessageType ( management message type = 3) ns3::UlMap ( ucd count = 3, allocation start time = 14560, number of ul-map elements = 1)
- 0.0303333 /NodeList/2/DeviceList/0/$ns3::WimaxNetDevice/BroadcastConnection/TxQueue/Dequeue ns3::MacHeaderType ( header type = 0) ns3::GenericMacHeader ( ec (encryption control) = 0, type = 0, ci (crc indicator) = 0, eks (encryption key sequence) = 0, len (length) = 50, cid = 65535, hcs (header check sequence) = 19) ns3::ManagementMessageType ( management message type = 0) ns3::Ucd ( configuration change count = 3, ranging backoff start = 3, ranging backoff end = 6, request backoff start = 3, request backoff end = 6, number of ul burst profiles = 0)
+ 0.0404444 /NodeList/2/DeviceList/0/$ns3::WimaxNetDevice/BroadcastConnection/TxQueue/Enqueue ns3::ManagementMessageType ( management message type = 2) ns3::DlMap ( dcd count = 1, base station id = 00:00:00:00:00:03, number of dl-map elements = 1)
+ 0.0404444 /NodeList/2/DeviceList/0/$ns3::WimaxNetDevice/BroadcastConnection/TxQueue/Enqueue ns3::ManagementMessageType ( management message type = 3) ns3::UlMap ( ucd count = 4, allocation start time = 14560, number of ul-map elements = 2)
+ 0.0404444 /NodeList/2/DeviceList/0/$ns3::WimaxNetDevice/BroadcastConnection/TxQueue/Enqueue ns3::ManagementMessageType ( management message type = 0) ns3::Ucd ( configuration change count = 4, ranging backoff start = 3, ranging backoff end = 6, request backoff start = 3, request backoff end = 6, number of ul burst profiles = 0)
- 0.0404444 /NodeList/2/DeviceList/0/$ns3::WimaxNetDevice/BroadcastConnection/TxQueue/Dequeue ns3::MacHeaderType ( header type = 0) ns3::GenericMacHeader ( ec (encryption control) = 0, type = 0, ci (crc indicator) = 0, eks (encryption key sequence) = 0, len (length) = 20, cid = 65535, hcs (header check sequence) = 45) ns3::ManagementMessageType ( management message type = 2) ns3::DlMap ( dcd count = 1, base station id = 00:00:00:00:00:03, number of dl-map elements = 1)
- 0.0404444 /NodeList/2/DeviceList/0/$ns3::WimaxNetDevice/BroadcastConnection/TxQueue/Dequeue ns3::MacHeaderType ( header type = 0) ns3::GenericMacHeader ( ec (encryption control) = 0, type = 0, ci (crc indicator) = 0, eks (encryption key sequence) = 0, len (length) = 31, cid = 65535, hcs (header check sequence) = 193) ns3::ManagementMessageType ( management message type = 3) ns3::UlMap ( ucd count = 4, allocation start time = 14560, number of ul-map elements = 2)
- 0.0404444 /NodeList/2/DeviceList/0/$ns3::WimaxNetDevice/BroadcastConnection/TxQueue/Dequeue ns3::MacHeaderType ( header type = 0) ns3::GenericMacHeader ( ec (encryption control) = 0, type = 0, ci (crc indicator) = 0, eks (encryption key sequence) = 0, len (length) = 50, cid = 65535, hcs (header check sequence) = 19) ns3::ManagementMessageType ( management message type = 0) ns3::Ucd ( configuration change count = 4, ranging backoff start = 3, ranging backoff end = 6, request backoff start = 3, request backoff end = 6, number of ul burst profiles = 0)
+ 0.0505555 /NodeList/2/DeviceList/0/$ns3::WimaxNetDevice/BroadcastConnection/TxQueue/Enqueue ns3::ManagementMessageType ( management message type = 2) ns3::DlMap ( dcd count = 1, base station id = 00:00:00:00:00:03, number of dl-map elements = 1)
+ 0.0505555 /NodeList/2/DeviceList/0/$ns3::WimaxNetDevice/BroadcastConnection/TxQueue/Enqueue ns3::ManagementMessageType ( management message type = 3) ns3::UlMap ( ucd count = 4, allocation start time = 14560, number of ul-map elements = 1)
- 0.0505555 /NodeList/2/DeviceList/0/$ns3::WimaxNetDevice/BroadcastConnection/TxQueue/Dequeue ns3::MacHeaderType ( header type = 0) ns3::GenericMacHeader ( ec (encryption control) = 0, type = 0, ci (crc indicator) = 0, eks (encryption key sequence) = 0, len (length) = 20, cid = 65535, hcs (header check sequence) = 45) ns3::ManagementMessageType ( management message type = 2) ns3::DlMap ( dcd count = 1, base station id = 00:00:00:00:00:03, number of dl-map elements = 1)
- 0.0505555 /NodeList/2/DeviceList/0/$ns3::WimaxNetDevice/BroadcastConnection/TxQueue/Dequeue ns3::MacHeaderType ( header type = 0) ns3::GenericMacHeader ( ec (encryption control) = 0, type = 0, ci (crc indicator) = 0, eks (encryption key sequence) = 0, len (length) = 22, cid = 65535, hcs (header check sequence) = 251) ns3::ManagementMessageType ( management message type = 3) ns3::UlMap ( ucd count = 4, allocation start time = 14560, number of ul-map elements = 1)
+ 0.0606666 /NodeList/2/DeviceList/0/$ns3::WimaxNetDevice/BroadcastConnection/TxQueue/Enqueue ns3::ManagementMessageType ( management message type = 2) ns3::DlMap ( dcd count = 1, base station id = 00:00:00:00:00:03, number of dl-map elements = 1)
+ 0.0606666 /NodeList/2/DeviceList/0/$ns3::WimaxNetDevice/BroadcastConnection/TxQueue/Enqueue ns3::ManagementMessageType ( management message type = 3) ns3::UlMap ( ucd count = 5, allocation start time = 14560, number of ul-map elements = 1)
+ 0.0606666 /NodeList/2/DeviceList/0/$ns3::WimaxNetDevice/BroadcastConnection/TxQueue/Enqueue ns3::ManagementMessageType ( management message type = 0) ns3::Ucd ( configuration change count = 5, ranging backoff start = 3, ranging backoff end = 6, request backoff start = 3, request backoff end = 6, number of ul burst profiles = 0)
- 0.0606666 /NodeList/2/DeviceList/0/$ns3::WimaxNetDevice/BroadcastConnection/TxQueue/Dequeue ns3::MacHeaderType ( header type = 0) ns3::GenericMacHeader ( ec (encryption control) = 0, type = 0, ci (crc indicator) = 0, eks (encryption key sequence) = 0, len (length) = 20, cid = 65535, hcs (header check sequence) = 45) ns3::ManagementMessageType ( management message type = 2) ns3::DlMap ( dcd count = 1, base station id = 00:00:00:00:00:03, number of dl-map elements = 1)
- 0.0606666 /NodeList/2/DeviceList/0/$ns3::WimaxNetDevice/BroadcastConnection/TxQueue/Dequeue ns3::MacHeaderType ( header type = 0) ns3::GenericMacHeader ( ec (encryption control) = 0, type = 0, ci (crc indicator) = 0, eks (encryption key sequence) = 0, len (length) = 22, cid = 65535, hcs (header check sequence) = 251) ns3::ManagementMessageType ( management message type = 3) ns3::UlMap ( ucd count = 5, allocation start time = 14560, number of ul-map elements = 1)
- 0.0606666 /NodeList/2/DeviceList/0/$ns3::WimaxNetDevice/BroadcastConnection/TxQueue/Dequeue ns3::MacHeaderType ( header type = 0) ns3::GenericMacHeader ( ec (encryption control) = 0, type = 0, ci (crc indicator) = 0, eks (encryption key sequence) = 0, len (length) = 50, cid = 65535, hcs (header check sequence) = 19) ns3::ManagementMessageType ( management message type = 0) ns3::Ucd ( configuration change count = 5, ranging backoff start = 3, ranging backoff end = 6, request backoff start = 3, request backoff end = 6, number of ul burst profiles = 0)
+ 0.0707778 /NodeList/2/DeviceList/0/$ns3::WimaxNetDevice/BroadcastConnection/TxQueue/Enqueue ns3::ManagementMessageType ( management message type = 2) ns3::DlMap ( dcd count = 1, base station id = 00:00:00:00:00:03, number of dl-map elements = 1)
+ 0.0707778 /NodeList/2/DeviceList/0/$ns3::WimaxNetDevice/BroadcastConnection/TxQueue/Enqueue ns3::ManagementMessageType ( management message type = 3) ns3::UlMap ( ucd count = 5, allocation start time = 14560, number of ul-map elements = 1)
- 0.0707778 /NodeList/2/DeviceList/0/$ns3::WimaxNetDevice/BroadcastConnection/TxQueue/Dequeue ns3::MacHeaderType ( header type = 0) ns3::GenericMacHeader ( ec (encryption control) = 0, type = 0, ci (crc indicator) = 0, eks (encryption key sequence) = 0, len (length) = 20, cid = 65535, hcs (header check sequence) = 45) ns3::ManagementMessageType ( management message type = 2) ns3::DlMap ( dcd count = 1, base station id = 00:00:00:00:00:03, number of dl-map elements = 1)
- 0.0707778 /NodeList/2/DeviceList/0/$ns3::WimaxNetDevice/BroadcastConnection/TxQueue/Dequeue ns3::MacHeaderType ( header type = 0) ns3::GenericMacHeader ( ec (encryption control) = 0, type = 0, ci (crc indicator) = 0, eks (encryption key sequence) = 0, len (length) = 22, cid = 65535, hcs (header check sequence) = 251) ns3::ManagementMessageType ( management message type = 3) ns3::UlMap ( ucd count = 5, allocation start time = 14560, number of ul-map elements = 1)
+ 0.0808889 /NodeList/2/DeviceList/0/$ns3::WimaxNetDevice/BroadcastConnection/TxQueue/Enqueue ns3::ManagementMessageType ( management message type = 2) ns3::DlMap ( dcd count = 1, base station id = 00:00:00:00:00:03, number of dl-map elements = 1)
+ 0.0808889 /NodeList/2/DeviceList/0/$ns3::WimaxNetDevice/BroadcastConnection/TxQueue/Enqueue ns3::ManagementMessageType ( management message type = 3) ns3::UlMap ( ucd count = 5, allocation start time = 14560, number of ul-map elements = 2)
- 0.0808889 /NodeList/2/DeviceList/0/$ns3::WimaxNetDevice/BroadcastConnection/TxQueue/Dequeue ns3::MacHeaderType ( header type = 0) ns3::GenericMacHeader ( ec (encryption control) = 0, type = 0, ci (crc indicator) = 0, eks (encryption key sequence) = 0, len (length) = 20, cid = 65535, hcs (header check sequence) = 45) ns3::ManagementMessageType ( management message type = 2) ns3::DlMap ( dcd count = 1, base station id = 00:00:00:00:00:03, number of dl-map elements = 1)
- 0.0808889 /NodeList/2/DeviceList/0/$ns3::WimaxNetDevice/BroadcastConnection/TxQueue/Dequeue ns3::MacHeaderType ( header type = 0) ns3::GenericMacHeader ( ec (encryption control) = 0, type = 0, ci (crc indicator) = 0, eks (encryption key sequence) = 0, len (length) = 31, cid = 65535, hcs (header check sequence) = 193) ns3::ManagementMessageType ( management message type = 3) ns3::UlMap ( ucd count = 5, allocation start time = 14560, number of ul-map elements = 2)
+ 0.091 /NodeList/2/DeviceList/0/$ns3::WimaxNetDevice/BroadcastConnection/TxQueue/Enqueue ns3::ManagementMessageType ( management message type = 2) ns3::DlMap ( dcd count = 2, base station id = 00:00:00:00:00:03, number of dl-map elements = 1)
+ 0.091 /NodeList/2/DeviceList/0/$ns3::WimaxNetDevice/BroadcastConnection/TxQueue/Enqueue ns3::ManagementMessageType ( management message type = 3) ns3::UlMap ( ucd count = 5, allocation start time = 14560, number of ul-map elements = 1)
+ 0.091 /NodeList/2/DeviceList/0/$ns3::WimaxNetDevice/BroadcastConnection/TxQueue/Enqueue ns3::ManagementMessageType ( management message type = 1) ns3::Dcd ( configuration change count = 2, number of dl burst profiles = 0)
- 0.091 /NodeList/2/DeviceList/0/$ns3::WimaxNetDevice/BroadcastConnection/TxQueue/Dequeue ns3::MacHeaderType ( header type = 0) ns3::GenericMacHeader ( ec (encryption control) = 0, type = 0, ci (crc indicator) = 0, eks (encryption key sequence) = 0, len (length) = 20, cid = 65535, hcs (header check sequence) = 45) ns3::ManagementMessageType ( management message type = 2) ns3::DlMap ( dcd count = 2, base station id = 00:00:00:00:00:03, number of dl-map elements = 1)
- 0.091 /NodeList/2/DeviceList/0/$ns3::WimaxNetDevice/BroadcastConnection/TxQueue/Dequeue ns3::MacHeaderType ( header type = 0) ns3::GenericMacHeader ( ec (encryption control) = 0, type = 0, ci (crc indicator) = 0, eks (encryption key sequence) = 0, len (length) = 22, cid = 65535, hcs (header check sequence) = 251) ns3::ManagementMessageType ( management message type = 3) ns3::UlMap ( ucd count = 5, allocation start time = 14560, number of ul-map elements = 1)
- 0.091 /NodeList/2/DeviceList/0/$ns3::WimaxNetDevice/BroadcastConnection/TxQueue/Dequeue ns3::MacHeaderType ( header type = 0) ns3::GenericMacHeader ( ec (encryption control) = 0, type = 0, ci (crc indicator) = 0, eks (encryption key sequence) = 0, len (length) = 59, cid = 65535, hcs (header check sequence) = 41) ns3::ManagementMessageType ( management message type = 1) ns3::Dcd ( configuration change count = 2, number of dl burst profiles = 0)
+ 0.101111 /NodeList/2/DeviceList/0/$ns3::WimaxNetDevice/BroadcastConnection/TxQueue/Enqueue ns3::ManagementMessageType ( management message type = 2) ns3::DlMap ( dcd count = 2, base station id = 00:00:00:00:00:03, number of dl-map elements = 1)
+ 0.101111 /NodeList/2/DeviceList/0/$ns3::WimaxNetDevice/BroadcastConnection/TxQueue/Enqueue ns3::ManagementMessageType ( management message type = 3) ns3::UlMap ( ucd count = 6, allocation start time = 14560, number of ul-map elements = 1)
+ 0.101111 /NodeList/2/DeviceList/0/$ns3::WimaxNetDevice/BroadcastConnection/TxQueue/Enqueue ns3::ManagementMessageType ( management message type = 0) ns3::Ucd ( configuration change count = 6, ranging backoff start = 3, ranging backoff end = 6, request backoff start = 3, request backoff end = 6, number of ul burst profiles = 0)
- 0.101111 /NodeList/2/DeviceList/0/$ns3::WimaxNetDevice/BroadcastConnection/TxQueue/Dequeue ns3::MacHeaderType ( header type = 0) ns3::GenericMacHeader ( ec (encryption control) = 0, type = 0, ci (crc indicator) = 0, eks (encryption key sequence) = 0, len (length) = 20, cid = 65535, hcs (header check sequence) = 45) ns3::ManagementMessageType ( management message type = 2) ns3::DlMap ( dcd count = 2, base station id = 00:00:00:00:00:03, number of dl-map elements = 1)
- 0.101111 /NodeList/2/DeviceList/0/$ns3::WimaxNetDevice/BroadcastConnection/TxQueue/Dequeue ns3::MacHeaderType ( header type = 0) ns3::GenericMacHeader ( ec (encryption control) = 0, type = 0, ci (crc indicator) = 0, eks (encryption key sequence) = 0, len (length) = 22, cid = 65535, hcs (header check sequence) = 251) ns3::ManagementMessageType ( management message type = 3) ns3::UlMap ( ucd count = 6, allocation start time = 14560, number of ul-map elements = 1)
- 0.101111 /NodeList/2/DeviceList/0/$ns3::WimaxNetDevice/BroadcastConnection/TxQueue/Dequeue ns3::MacHeaderType ( header type = 0) ns3::GenericMacHeader ( ec (encryption control) = 0, type = 0, ci (crc indicator) = 0, eks (encryption key sequence) = 0, len (length) = 50, cid = 65535, hcs (header check sequence) = 19) ns3::ManagementMessageType ( management message type = 0) ns3::Ucd ( configuration change count = 6, ranging backoff start = 3, ranging backoff end = 6, request backoff start = 3, request backoff end = 6, number of ul burst profiles = 0)
+ 0.111222 /NodeList/2/DeviceList/0/$ns3::WimaxNetDevice/BroadcastConnection/TxQueue/Enqueue ns3::ManagementMessageType ( management message type = 2) ns3::DlMap ( dcd count = 3, base station id = 00:00:00:00:00:03, number of dl-map elements = 1)
+ 0.111222 /NodeList/2/DeviceList/0/$ns3::WimaxNetDevice/BroadcastConnection/TxQueue/Enqueue ns3::ManagementMessageType ( management message type = 3) ns3::UlMap ( ucd count = 7, allocation start time = 14560, number of ul-map elements = 1)
+ 0.111222 /NodeList/2/DeviceList/0/$ns3::WimaxNetDevice/BroadcastConnection/TxQueue/Enqueue ns3::ManagementMessageType ( management message type = 1) ns3::Dcd ( configuration change count = 3, number of dl burst profiles = 0)
+ 0.111222 /NodeList/2/DeviceList/0/$ns3::WimaxNetDevice/BroadcastConnection/TxQueue/Enqueue ns3::ManagementMessageType ( management message type = 0) ns3::Ucd ( configuration change count = 7, ranging backoff start = 3, ranging backoff end = 6, request backoff start = 3, request backoff end = 6, number of ul burst profiles = 0)
- 0.111222 /NodeList/2/DeviceList/0/$ns3::WimaxNetDevice/BroadcastConnection/TxQueue/Dequeue ns3::MacHeaderType ( header type = 0) ns3::GenericMacHeader ( ec (encryption control) = 0, type = 0, ci (crc indicator) = 0, eks (encryption key sequence) = 0, len (length) = 20, cid = 65535, hcs (header check sequence) = 45) ns3::ManagementMessageType ( management message type = 2) ns3::DlMap ( dcd count = 3, base station id = 00:00:00:00:00:03, number of dl-map elements = 1)
- 0.111222 /NodeList/2/DeviceList/0/$ns3::WimaxNetDevice/BroadcastConnection/TxQueue/Dequeue ns3::MacHeaderType ( header type = 0) ns3::GenericMacHeader ( ec (encryption control) = 0, type = 0, ci (crc indicator) = 0, eks (encryption key sequence) = 0, len (length) = 22, cid = 65535, hcs (header check sequence) = 251) ns3::ManagementMessageType ( management message type = 3) ns3::UlMap ( ucd count = 7, allocation start time = 14560, number of ul-map elements = 1)
- 0.111222 /NodeList/2/DeviceList/0/$ns3::WimaxNetDevice/BroadcastConnection/TxQueue/Dequeue ns3::MacHeaderType ( header type = 0) ns3::GenericMacHeader ( ec (encryption control) = 0, type = 0, ci (crc indicator) = 0, eks (encryption key sequence) = 0, len (length) = 59, cid = 65535, hcs (header check sequence) = 41) ns3::ManagementMessageType ( management message type = 1) ns3::Dcd ( configuration change count = 3, number of dl burst profiles = 0)
- 0.111222 /NodeList/2/DeviceList/0/$ns3::WimaxNetDevice/BroadcastConnection/TxQueue/Dequeue ns3::MacHeaderType ( header type = 0) ns3::GenericMacHeader ( ec (encryption control) = 0, type = 0, ci (crc indicator) = 0, eks (encryption key sequence) = 0, len (length) = 50, cid = 65535, hcs (header check sequence) = 19) ns3::ManagementMessageType ( management message type = 0) ns3::Ucd ( configuration change count = 7, ranging backoff start = 3, ranging backoff end = 6, request backoff start = 3, request backoff end = 6, number of ul burst profiles = 0)
+ 0.121333 /NodeList/2/DeviceList/0/$ns3::WimaxNetDevice/BroadcastConnection/TxQueue/Enqueue ns3::ManagementMessageType ( management message type = 2) ns3::DlMap ( dcd count = 4, base station id = 00:00:00:00:00:03, number of dl-map elements = 1)
+ 0.121333 /NodeList/2/DeviceList/0/$ns3::WimaxNetDevice/BroadcastConnection/TxQueue/Enqueue ns3::ManagementMessageType ( management message type = 3) ns3::UlMap ( ucd count = 8, allocation start time = 14560, number of ul-map elements = 2)
+ 0.121333 /NodeList/2/DeviceList/0/$ns3::WimaxNetDevice/BroadcastConnection/TxQueue/Enqueue ns3::ManagementMessageType ( management message type = 1) ns3::Dcd ( configuration change count = 4, number of dl burst profiles = 0)
+ 0.121333 /NodeList/2/DeviceList/0/$ns3::WimaxNetDevice/BroadcastConnection/TxQueue/Enqueue ns3::ManagementMessageType ( management message type = 0) ns3::Ucd ( configuration change count = 8, ranging backoff start = 3, ranging backoff end = 6, request backoff start = 3, request backoff end = 6, number of ul burst profiles = 0)
- 0.121333 /NodeList/2/DeviceList/0/$ns3::WimaxNetDevice/BroadcastConnection/TxQueue/Dequeue ns3::MacHeaderType ( header type = 0) ns3::GenericMacHeader ( ec (encryption control) = 0, type = 0, ci (crc indicator) = 0, eks (encryption key sequence) = 0, len (length) = 20, cid = 65535, hcs (header check sequence) = 45) ns3::ManagementMessageType ( management message type = 2) ns3::DlMap ( dcd count = 4, base station id = 00:00:00:00:00:03, number of dl-map elements = 1)
- 0.121333 /NodeList/2/DeviceList/0/$ns3::WimaxNetDevice/BroadcastConnection/TxQueue/Dequeue ns3::MacHeaderType ( header type = 0) ns3::GenericMacHeader ( ec (encryption control) = 0, type = 0, ci (crc indicator) = 0, eks (encryption key sequence) = 0, len (length) = 31, cid = 65535, hcs (header check sequence) = 193) ns3::ManagementMessageType ( management message type = 3) ns3::UlMap ( ucd count = 8, allocation start time = 14560, number of ul-map elements = 2)
- 0.121333 /NodeList/2/DeviceList/0/$ns3::WimaxNetDevice/BroadcastConnection/TxQueue/Dequeue ns3::MacHeaderType ( header type = 0) ns3::GenericMacHeader ( ec (encryption control) = 0, type = 0, ci (crc indicator) = 0, eks (encryption key sequence) = 0, len (length) = 59, cid = 65535, hcs (header check sequence) = 41) ns3::ManagementMessageType ( management message type = 1) ns3::Dcd ( configuration change count = 4, number of dl burst profiles = 0)
- 0.121333 /NodeList/2/DeviceList/0/$ns3::WimaxNetDevice/BroadcastConnection/TxQueue/Dequeue ns3::MacHeaderType ( header type = 0) ns3::GenericMacHeader ( ec (encryption control) = 0, type = 0, ci (crc indicator) = 0, eks (encryption key sequence) = 0, len (length) = 50, cid = 65535, hcs (header check sequence) = 19) ns3::ManagementMessageType ( management message type = 0) ns3::Ucd ( configuration change count = 8, ranging backoff start = 3, ranging backoff end = 6, request backoff start = 3, request backoff end = 6, number of ul burst profiles = 0)
+ 0.131444 /NodeList/2/DeviceList/0/$ns3::WimaxNetDevice/BroadcastConnection/TxQueue/Enqueue ns3::ManagementMessageType ( management message type = 2) ns3::DlMap ( dcd count = 5, base station id = 00:00:00:00:00:03, number of dl-map elements = 1)
+ 0.131444 /NodeList/2/DeviceList/0/$ns3::WimaxNetDevice/BroadcastConnection/TxQueue/Enqueue ns3::ManagementMessageType ( management message type = 3) ns3::UlMap ( ucd count = 8, allocation start time = 14560, number of ul-map elements = 1)
+ 0.131444 /NodeList/2/DeviceList/0/$ns3::WimaxNetDevice/BroadcastConnection/TxQueue/Enqueue ns3::ManagementMessageType ( management message type = 1) ns3::Dcd ( configuration change count = 5, number of dl burst profiles = 0)
- 0.131444 /NodeList/2/DeviceList/0/$ns3::WimaxNetDevice/BroadcastConnection/TxQueue/Dequeue ns3::MacHeaderType ( header type = 0) ns3::GenericMacHeader ( ec (encryption control) = 0, type = 0, ci (crc indicator) = 0, eks (encryption key sequence) = 0, len (length) = 20, cid = 65535, hcs (header check sequence) = 45) ns3::ManagementMessageType ( management message type = 2) ns3::DlMap ( dcd count = 5, base station id = 00:00:00:00:00:03, number of dl-map elements = 1)