# nam4wpan #
c -t * -i 32 -n tomato
c -t * -i 33 -n green
c -t * -i 34 -n navy
c -t * -i 35 -n blue
c -t * -i 36 -n blue
c -t * -i 37 -n green4
c -t * -i 38 -n green4
c -t * -i 39 -n cyan4
c -t * -i 40 -n cyan4
n -t * -s 0  -x 25 -y 25 -Z 0 -z 2  -v circle -c green
n -t * -s 1  -x 35 -y 25 -Z 0 -z 2  -v circle -c green
n -t * -s 2  -x 29.996300000000002 -y 33.662399999999998 -Z 0 -z 2  -v circle -c green
n -t * -s 3  -x 19.992699999999999 -y 33.655999999999999 -Z 0 -z 2  -v circle -c green
n -t * -s 4  -x 15 -y 24.987400000000001 -Z 0 -z 2  -v circle -c green
n -t * -s 5  -x 20.014600000000002 -y 16.331299999999999 -Z 0 -z 2  -v circle -c green
n -t * -s 6  -x 30.0182 -y 16.350300000000001 -Z 0 -z 2  -v circle -c green
V -t * -v 1.0a5 -a 0
W -t * -x 50 -y 50
A -t * -n 1 -p 0 -o 0xffffffff -c 31 -a 1
A -t * -h 1 -m 2147483647 -s 0
v -t 0.000000000 -e set_rate_ext 3ms 1
n -t 0.000000000 -s 0 -S DLABEL -l "PAN Coor" -L ""
+ -t 0.000640000 -s 0 -d -1 -p CM7 -e 8 -c 2 -a 34 -i 0 -k MAC 
- -t 0.000640000 -s 0 -d -1 -p CM7 -e 8 -c 2 -a 34 -i 0 -k MAC
h -t 0.000640000 -s 0 -d -1 -p CM7 -e 8 -c 2 -a 34 -i 0 -k MAC -R 15.00 -D 0.00
r -t 0.001088033 -s 3 -d -1 -p CM7 -e 8 -c 2 -a 34 -i 0 -k MAC
r -t 0.001088033 -s 6 -d -1 -p CM7 -e 8 -c 2 -a 34 -i 0 -k MAC
r -t 0.001088033 -s 1 -d -1 -p CM7 -e 8 -c 2 -a 34 -i 0 -k MAC
r -t 0.001088033 -s 4 -d -1 -p CM7 -e 8 -c 2 -a 34 -i 0 -k MAC
r -t 0.001088033 -s 2 -d -1 -p CM7 -e 8 -c 2 -a 34 -i 0 -k MAC
r -t 0.001088033 -s 5 -d -1 -p CM7 -e 8 -c 2 -a 34 -i 0 -k MAC
+ -t 0.500320000 -s 1 -d -1 -p CM7 -e 8 -c 2 -a 0 -i 0 -k MAC 
- -t 0.500320000 -s 1 -d -1 -p CM7 -e 8 -c 2 -a 0 -i 0 -k MAC
h -t 0.500320000 -s 1 -d -1 -p CM7 -e 8 -c 2 -a 0 -i 0 -k MAC -R 15.00 -D 0.00
r -t 0.500768033 -s 6 -d -1 -p CM7 -e 8 -c 2 -a 0 -i 0 -k MAC
d -t 0.500768033 -s 0 -d -1 -p CM7 -e 8 -c 2 -a 0 -i 0 -k MAC
r -t 0.500768033 -s 2 -d -1 -p CM7 -e 8 -c 2 -a 0 -i 0 -k MAC
+ -t 1.500960000 -s 2 -d -1 -p CM7 -e 8 -c 2 -a 0 -i 0 -k MAC 
- -t 1.500960000 -s 2 -d -1 -p CM7 -e 8 -c 2 -a 0 -i 0 -k MAC
h -t 1.500960000 -s 2 -d -1 -p CM7 -e 8 -c 2 -a 0 -i 0 -k MAC -R 15.00 -D 0.00
d -t 1.501408033 -s 0 -d -1 -p CM7 -e 8 -c 2 -a 0 -i 0 -k MAC
r -t 1.501408033 -s 3 -d -1 -p CM7 -e 8 -c 2 -a 0 -i 0 -k MAC
d -t 1.501408033 -s 1 -d -1 -p CM7 -e 8 -c 2 -a 0 -i 0 -k MAC
+ -t 1.984960000 -s 0 -d -1 -p CM7 -e 8 -c 2 -a 34 -i 0 -k MAC 
- -t 1.984960000 -s 0 -d -1 -p CM7 -e 8 -c 2 -a 34 -i 0 -k MAC
h -t 1.984960000 -s 0 -d -1 -p CM7 -e 8 -c 2 -a 34 -i 0 -k MAC -R 15.00 -D 0.00
+ -t 2.500640000 -s 3 -d -1 -p CM7 -e 8 -c 2 -a 0 -i 0 -k MAC 
- -t 2.500640000 -s 3 -d -1 -p CM7 -e 8 -c 2 -a 0 -i 0 -k MAC
h -t 2.500640000 -s 3 -d -1 -p CM7 -e 8 -c 2 -a 0 -i 0 -k MAC -R 15.00 -D 0.00
r -t 2.501088033 -s 4 -d -1 -p CM7 -e 8 -c 2 -a 0 -i 0 -k MAC
d -t 2.501088033 -s 2 -d -1 -p CM7 -e 8 -c 2 -a 0 -i 0 -k MAC
+ -t 3.500640000 -s 4 -d -1 -p CM7 -e 8 -c 2 -a 0 -i 0 -k MAC 
- -t 3.500640000 -s 4 -d -1 -p CM7 -e 8 -c 2 -a 0 -i 0 -k MAC
h -t 3.500640000 -s 4 -d -1 -p CM7 -e 8 -c 2 -a 0 -i 0 -k MAC -R 15.00 -D 0.00
d -t 3.501088033 -s 3 -d -1 -p CM7 -e 8 -c 2 -a 0 -i 0 -k MAC
r -t 3.501088033 -s 5 -d -1 -p CM7 -e 8 -c 2 -a 0 -i 0 -k MAC
+ -t 3.969280000 -s 0 -d -1 -p CM7 -e 8 -c 2 -a 34 -i 0 -k MAC 
- -t 3.969280000 -s 0 -d -1 -p CM7 -e 8 -c 2 -a 34 -i 0 -k MAC
h -t 3.969280000 -s 0 -d -1 -p CM7 -e 8 -c 2 -a 34 -i 0 -k MAC -R 15.00 -D 0.00
+ -t 4.450400000 -s 1 -d -1 -p CM7 -e 8 -c 2 -a 0 -i 0 -k MAC 
- -t 4.450400000 -s 1 -d -1 -p CM7 -e 8 -c 2 -a 0 -i 0 -k MAC
h -t 4.450400000 -s 1 -d -1 -p CM7 -e 8 -c 2 -a 0 -i 0 -k MAC -R 15.00 -D 0.00
+ -t 4.502560000 -s 5 -d -1 -p CM7 -e 8 -c 2 -a 0 -i 0 -k MAC 
- -t 4.502560000 -s 5 -d -1 -p CM7 -e 8 -c 2 -a 0 -i 0 -k MAC
h -t 4.502560000 -s 5 -d -1 -p CM7 -e 8 -c 2 -a 0 -i 0 -k MAC -R 15.00 -D 0.00
r -t 4.503008033 -s 6 -d -1 -p CM7 -e 8 -c 2 -a 0 -i 0 -k MAC
d -t 4.503008033 -s 4 -d -1 -p CM7 -e 8 -c 2 -a 0 -i 0 -k MAC
+ -t 5.449760000 -s 2 -d -1 -p CM7 -e 8 -c 2 -a 0 -i 0 -k MAC 
- -t 5.449760000 -s 2 -d -1 -p CM7 -e 8 -c 2 -a 0 -i 0 -k MAC
h -t 5.449760000 -s 2 -d -1 -p CM7 -e 8 -c 2 -a 0 -i 0 -k MAC -R 15.00 -D 0.00
d -t 5.450208033 -s 1 -d -1 -p CM7 -e 8 -c 2 -a 0 -i 0 -k MAC
+ -t 5.501920000 -s 6 -d -1 -p CM7 -e 8 -c 2 -a 0 -i 0 -k MAC 
- -t 5.501920000 -s 6 -d -1 -p CM7 -e 8 -c 2 -a 0 -i 0 -k MAC
h -t 5.501920000 -s 6 -d -1 -p CM7 -e 8 -c 2 -a 0 -i 0 -k MAC -R 15.00 -D 0.00
d -t 5.502368033 -s 5 -d -1 -p CM7 -e 8 -c 2 -a 0 -i 0 -k MAC
+ -t 5.951552000 -s 0 -d -1 -p BCN -e 12 -c 2 -a 34 -i 0 -k MAC 
- -t 5.951552000 -s 0 -d -1 -p BCN -e 12 -c 2 -a 34 -i 0 -k MAC
h -t 5.951552000 -s 0 -d -1 -p BCN -e 12 -c 2 -a 34 -i 0 -k MAC -R 15.00 -D 0.00
+ -t 6.449760000 -s 3 -d -1 -p CM7 -e 8 -c 2 -a 0 -i 0 -k MAC 
- -t 6.449760000 -s 3 -d -1 -p CM7 -e 8 -c 2 -a 0 -i 0 -k MAC
h -t 6.449760000 -s 3 -d -1 -p CM7 -e 8 -c 2 -a 0 -i 0 -k MAC -R 15.00 -D 0.00
d -t 6.450208033 -s 2 -d -1 -p CM7 -e 8 -c 2 -a 0 -i 0 -k MAC
v -t 7 -e sim_annotation 7 1 (at 7.0) ftp traffic from node 0 to node 1
v -t 7.000000001 -e set_rate_ext 0.20ms 1
+ -t 7.002112000 -s 0 -d -1 -p AODV -e 55 -c 2 -a 32 -i 0 -k MAC 
- -t 7.002112000 -s 0 -d -1 -p AODV -e 55 -c 2 -a 32 -i 0 -k MAC
h -t 7.002112000 -s 0 -d -1 -p AODV -e 55 -c 2 -a 32 -i 0 -k MAC -R 15.00 -D 0.00
d -t 7.004064033 -s 6 -d -1 -p AODV -e 55 -c 2 -a 32 -i 0 -k MAC
d -t 7.004064033 -s 4 -d -1 -p AODV -e 55 -c 2 -a 32 -i 0 -k MAC
d -t 7.004064033 -s 5 -d -1 -p AODV -e 55 -c 2 -a 32 -i 0 -k MAC
v -t 7.2 -e sim_annotation 7.2 2 (at 7.2) ftp traffic from node 0 to node 3
+ -t 7.201792000 -s 0 -d -1 -p AODV -e 55 -c 2 -a 32 -i 0 -k MAC 
- -t 7.201792000 -s 0 -d -1 -p AODV -e 55 -c 2 -a 32 -i 0 -k MAC
h -t 7.201792000 -s 0 -d -1 -p AODV -e 55 -c 2 -a 32 -i 0 -k MAC -R 15.00 -D 0.00
d -t 7.203744033 -s 6 -d -1 -p AODV -e 55 -c 2 -a 32 -i 0 -k MAC
d -t 7.203744033 -s 4 -d -1 -p AODV -e 55 -c 2 -a 32 -i 0 -k MAC
d -t 7.203744033 -s 5 -d -1 -p AODV -e 55 -c 2 -a 32 -i 0 -k MAC
v -t 7.4 -e sim_annotation 7.4 3 (at 7.4) ftp traffic from node 0 to node 5
+ -t 7.401792000 -s 0 -d -1 -p AODV -e 55 -c 2 -a 32 -i 0 -k MAC 
- -t 7.401792000 -s 0 -d -1 -p AODV -e 55 -c 2 -a 32 -i 0 -k MAC
h -t 7.401792000 -s 0 -d -1 -p AODV -e 55 -c 2 -a 32 -i 0 -k MAC -R 15.00 -D 0.00
d -t 7.403744033 -s 6 -d -1 -p AODV -e 55 -c 2 -a 32 -i 0 -k MAC
d -t 7.403744033 -s 4 -d -1 -p AODV -e 55 -c 2 -a 32 -i 0 -k MAC
d -t 7.403744033 -s 5 -d -1 -p AODV -e 55 -c 2 -a 32 -i 0 -k MAC
+ -t 7.450080000 -s 4 -d -1 -p CM7 -e 8 -c 2 -a 0 -i 0 -k MAC 
- -t 7.450080000 -s 4 -d -1 -p CM7 -e 8 -c 2 -a 0 -i 0 -k MAC
h -t 7.450080000 -s 4 -d -1 -p CM7 -e 8 -c 2 -a 0 -i 0 -k MAC -R 15.00 -D 0.00
d -t 7.450528033 -s 3 -d -1 -p CM7 -e 8 -c 2 -a 0 -i 0 -k MAC
v -t 7.500000001 -e set_rate_ext 1.5ms 1
+ -t 7.917632000 -s 0 -d -1 -p BCN -e 12 -c 2 -a 34 -i 0 -k MAC 
- -t 7.917632000 -s 0 -d -1 -p BCN -e 12 -c 2 -a 34 -i 0 -k MAC
h -t 7.917632000 -s 0 -d -1 -p BCN -e 12 -c 2 -a 34 -i 0 -k MAC -R 15.00 -D 0.00
+ -t 8.400480000 -s 1 -d -1 -p CM7 -e 8 -c 2 -a 0 -i 0 -k MAC 
- -t 8.400480000 -s 1 -d -1 -p CM7 -e 8 -c 2 -a 0 -i 0 -k MAC
h -t 8.400480000 -s 1 -d -1 -p CM7 -e 8 -c 2 -a 0 -i 0 -k MAC -R 15.00 -D 0.00
+ -t 8.452640000 -s 5 -d -1 -p CM7 -e 8 -c 2 -a 0 -i 0 -k MAC 
- -t 8.452640000 -s 5 -d -1 -p CM7 -e 8 -c 2 -a 0 -i 0 -k MAC
h -t 8.452640000 -s 5 -d -1 -p CM7 -e 8 -c 2 -a 0 -i 0 -k MAC -R 15.00 -D 0.00
d -t 8.453088033 -s 4 -d -1 -p CM7 -e 8 -c 2 -a 0 -i 0 -k MAC
+ -t 9.001792000 -s 0 -d -1 -p AODV -e 55 -c 2 -a 32 -i 0 -k MAC 
- -t 9.001792000 -s 0 -d -1 -p AODV -e 55 -c 2 -a 32 -i 0 -k MAC
h -t 9.001792000 -s 0 -d -1 -p AODV -e 55 -c 2 -a 32 -i 0 -k MAC -R 15.00 -D 0.00
d -t 9.003744033 -s 6 -d -1 -p AODV -e 55 -c 2 -a 32 -i 0 -k MAC
+ -t 9.005952000 -s 0 -d -1 -p AODV -e 55 -c 2 -a 32 -i 0 -k MAC 
- -t 9.005952000 -s 0 -d -1 -p AODV -e 55 -c 2 -a 32 -i 0 -k MAC
h -t 9.005952000 -s 0 -d -1 -p AODV -e 55 -c 2 -a 32 -i 0 -k MAC -R 15.00 -D 0.00
d -t 9.007904033 -s 6 -d -1 -p AODV -e 55 -c 2 -a 32 -i 0 -k MAC
+ -t 9.398560000 -s 2 -d -1 -p CM7 -e 8 -c 2 -a 0 -i 0 -k MAC 
- -t 9.398560000 -s 2 -d -1 -p CM7 -e 8 -c 2 -a 0 -i 0 -k MAC
h -t 9.398560000 -s 2 -d -1 -p CM7 -e 8 -c 2 -a 0 -i 0 -k MAC -R 15.00 -D 0.00
d -t 9.399008033 -s 1 -d -1 -p CM7 -e 8 -c 2 -a 0 -i 0 -k MAC
+ -t 9.450400000 -s 6 -d -1 -p CM7 -e 8 -c 2 -a 0 -i 0 -k MAC 
- -t 9.450400000 -s 6 -d -1 -p CM7 -e 8 -c 2 -a 0 -i 0 -k MAC
h -t 9.450400000 -s 6 -d -1 -p CM7 -e 8 -c 2 -a 0 -i 0 -k MAC -R 15.00 -D 0.00
d -t 9.450848033 -s 5 -d -1 -p CM7 -e 8 -c 2 -a 0 -i 0 -k MAC
+ -t 9.502912000 -s 0 -d -1 -p AODV -e 55 -c 2 -a 32 -i 0 -k MAC 
- -t 9.502912000 -s 0 -d -1 -p AODV -e 55 -c 2 -a 32 -i 0 -k MAC
h -t 9.502912000 -s 0 -d -1 -p AODV -e 55 -c 2 -a 32 -i 0 -k MAC -R 15.00 -D 0.00
+ -t 9.883712000 -s 0 -d -1 -p BCN -e 12 -c 2 -a 34 -i 0 -k MAC 
- -t 9.883712000 -s 0 -d -1 -p BCN -e 12 -c 2 -a 34 -i 0 -k MAC
h -t 9.883712000 -s 0 -d -1 -p BCN -e 12 -c 2 -a 34 -i 0 -k MAC -R 15.00 -D 0.00
+ -t 10.398560000 -s 3 -d -1 -p CM7 -e 8 -c 2 -a 0 -i 0 -k MAC 
- -t 10.398560000 -s 3 -d -1 -p CM7 -e 8 -c 2 -a 0 -i 0 -k MAC
h -t 10.398560000 -s 3 -d -1 -p CM7 -e 8 -c 2 -a 0 -i 0 -k MAC -R 15.00 -D 0.00
d -t 10.399008033 -s 2 -d -1 -p CM7 -e 8 -c 2 -a 0 -i 0 -k MAC
+ -t 11.400800000 -s 4 -d -1 -p CM7 -e 8 -c 2 -a 0 -i 0 -k MAC 
- -t 11.400800000 -s 4 -d -1 -p CM7 -e 8 -c 2 -a 0 -i 0 -k MAC
h -t 11.400800000 -s 4 -d -1 -p CM7 -e 8 -c 2 -a 0 -i 0 -k MAC -R 15.00 -D 0.00
d -t 11.401248033 -s 3 -d -1 -p CM7 -e 8 -c 2 -a 0 -i 0 -k MAC
+ -t 11.849792000 -s 0 -d -1 -p BCN -e 12 -c 2 -a 34 -i 0 -k MAC 
- -t 11.849792000 -s 0 -d -1 -p BCN -e 12 -c 2 -a 34 -i 0 -k MAC
h -t 11.849792000 -s 0 -d -1 -p BCN -e 12 -c 2 -a 34 -i 0 -k MAC -R 15.00 -D 0.00
+ -t 12.401760000 -s 5 -d -1 -p CM7 -e 8 -c 2 -a 0 -i 0 -k MAC 
- -t 12.401760000 -s 5 -d -1 -p CM7 -e 8 -c 2 -a 0 -i 0 -k MAC
h -t 12.401760000 -s 5 -d -1 -p CM7 -e 8 -c 2 -a 0 -i 0 -k MAC -R 15.00 -D 0.00
d -t 12.402208033 -s 4 -d -1 -p CM7 -e 8 -c 2 -a 0 -i 0 -k MAC
+ -t 13.003072000 -s 0 -d -1 -p AODV -e 55 -c 2 -a 32 -i 0 -k MAC 
- -t 13.003072000 -s 0 -d -1 -p AODV -e 55 -c 2 -a 32 -i 0 -k MAC
h -t 13.003072000 -s 0 -d -1 -p AODV -e 55 -c 2 -a 32 -i 0 -k MAC -R 15.00 -D 0.00
+ -t 13.006272000 -s 0 -d -1 -p AODV -e 55 -c 2 -a 32 -i 0 -k MAC 
- -t 13.006272000 -s 0 -d -1 -p AODV -e 55 -c 2 -a 32 -i 0 -k MAC
h -t 13.006272000 -s 0 -d -1 -p AODV -e 55 -c 2 -a 32 -i 0 -k MAC -R 15.00 -D 0.00
+ -t 13.349280000 -s 1 -d -1 -p CM7 -e 8 -c 2 -a 0 -i 0 -k MAC 
- -t 13.349280000 -s 1 -d -1 -p CM7 -e 8 -c 2 -a 0 -i 0 -k MAC
h -t 13.349280000 -s 1 -d -1 -p CM7 -e 8 -c 2 -a 0 -i 0 -k MAC -R 15.00 -D 0.00
r -t 13.349728033 -s 0 -d -1 -p CM7 -e 8 -c 2 -a 0 -i 0 -k MAC
+ -t 13.400160000 -s 6 -d -1 -p CM7 -e 8 -c 2 -a 0 -i 0 -k MAC 
- -t 13.400160000 -s 6 -d -1 -p CM7 -e 8 -c 2 -a 0 -i 0 -k MAC
h -t 13.400160000 -s 6 -d -1 -p CM7 -e 8 -c 2 -a 0 -i 0 -k MAC -R 15.00 -D 0.00
d -t 13.400608033 -s 5 -d -1 -p CM7 -e 8 -c 2 -a 0 -i 0 -k MAC
+ -t 13.500672000 -s 0 -d -1 -p AODV -e 55 -c 2 -a 32 -i 0 -k MAC 
- -t 13.500672000 -s 0 -d -1 -p AODV -e 55 -c 2 -a 32 -i 0 -k MAC
h -t 13.500672000 -s 0 -d -1 -p AODV -e 55 -c 2 -a 32 -i 0 -k MAC -R 15.00 -D 0.00
d -t 13.502624033 -s 1 -d -1 -p AODV -e 55 -c 2 -a 32 -i 0 -k MAC
+ -t 13.815872000 -s 0 -d -1 -p BCN -e 12 -c 2 -a 34 -i 0 -k MAC 
- -t 13.815872000 -s 0 -d -1 -p BCN -e 12 -c 2 -a 34 -i 0 -k MAC
h -t 13.815872000 -s 0 -d -1 -p BCN -e 12 -c 2 -a 34 -i 0 -k MAC -R 15.00 -D 0.00
+ -t 14.348320000 -s 2 -d -1 -p CM7 -e 8 -c 2 -a 0 -i 0 -k MAC 
- -t 14.348320000 -s 2 -d -1 -p CM7 -e 8 -c 2 -a 0 -i 0 -k MAC
h -t 14.348320000 -s 2 -d -1 -p CM7 -e 8 -c 2 -a 0 -i 0 -k MAC -R 15.00 -D 0.00
r -t 14.348768033 -s 0 -d -1 -p CM7 -e 8 -c 2 -a 0 -i 0 -k MAC
r -t 14.348768033 -s 3 -d -1 -p CM7 -e 8 -c 2 -a 0 -i 0 -k MAC
d -t 14.348768033 -s 1 -d -1 -p CM7 -e 8 -c 2 -a 0 -i 0 -k MAC
+ -t 14.349088000 -s 3 -d 0 -p ACRP -e 17 -c 2 -a 0 -i 0 -k MAC 
- -t 14.349088000 -s 3 -d 0 -p ACRP -e 17 -c 2 -a 0 -i 0 -k MAC
h -t 14.349088000 -s 3 -d 0 -p ACRP -e 17 -c 2 -a 0 -i 0 -k MAC
r -t 14.349824033 -s 0 -d 0 -p ACRP -e 17 -c 2 -a 0 -i 0 -k MAC
+ -t 14.350272000 -s 0 -d 3 -p ACK -e 5 -c 2 -a 0 -i 0 -k MAC 
- -t 14.350272000 -s 0 -d 3 -p ACK -e 5 -c 2 -a 0 -i 0 -k MAC
h -t 14.350272000 -s 0 -d 3 -p ACK -e 5 -c 2 -a 0 -i 0 -k MAC
r -t 14.350624033 -s 3 -d 3 -p ACK -e 5 -c 2 -a 0 -i 0 -k MAC
+ -t 14.842144033 -s 3 -d 0 -p CM4 -e 16 -c 2 -a 0 -i 0 -k MAC 
- -t 14.842144033 -s 3 -d 0 -p CM4 -e 16 -c 2 -a 0 -i 0 -k MAC
h -t 14.842144033 -s 3 -d 0 -p CM4 -e 16 -c 2 -a 0 -i 0 -k MAC
r -t 14.842848067 -s 0 -d 0 -p CM4 -e 16 -c 2 -a 0 -i 0 -k MAC
+ -t 14.843072000 -s 0 -d 3 -p ACK -e 5 -c 2 -a 0 -i 0 -k MAC 
- -t 14.843072000 -s 0 -d 3 -p ACK -e 5 -c 2 -a 0 -i 0 -k MAC
h -t 14.843072000 -s 0 -d 3 -p ACK -e 5 -c 2 -a 0 -i 0 -k MAC
r -t 14.843424033 -s 3 -d 3 -p ACK -e 5 -c 2 -a 0 -i 0 -k MAC
+ -t 14.843712000 -s 0 -d 3 -p CM2 -e 25 -c 2 -a 0 -i 0 -k MAC 
- -t 14.843712000 -s 0 -d 3 -p CM2 -e 25 -c 2 -a 0 -i 0 -k MAC
h -t 14.843712000 -s 0 -d 3 -p CM2 -e 25 -c 2 -a 0 -i 0 -k MAC
r -t 14.844704033 -s 3 -d 3 -p CM2 -e 25 -c 2 -a 0 -i 0 -k MAC
+ -t 14.844896033 -s 3 -d 0 -p ACK -e 5 -c 2 -a 0 -i 0 -k MAC 
- -t 14.844896033 -s 3 -d 0 -p ACK -e 5 -c 2 -a 0 -i 0 -k MAC
h -t 14.844896033 -s 3 -d 0 -p ACK -e 5 -c 2 -a 0 -i 0 -k MAC
r -t 14.845248067 -s 0 -d 0 -p ACK -e 5 -c 2 -a 0 -i 0 -k MAC
n -t 14.845888034 -s 3 -S DLABEL -l [0] -L ""
+ -t 15.349600000 -s 4 -d 0 -p ACRP -e 17 -c 2 -a 0 -i 0 -k MAC 
- -t 15.349600000 -s 4 -d 0 -p ACRP -e 17 -c 2 -a 0 -i 0 -k MAC
h -t 15.349600000 -s 4 -d 0 -p ACRP -e 17 -c 2 -a 0 -i 0 -k MAC
r -t 15.350336033 -s 0 -d 0 -p ACRP -e 17 -c 2 -a 0 -i 0 -k MAC
+ -t 15.350592000 -s 0 -d 4 -p ACK -e 5 -c 2 -a 0 -i 0 -k MAC 
- -t 15.350592000 -s 0 -d 4 -p ACK -e 5 -c 2 -a 0 -i 0 -k MAC
h -t 15.350592000 -s 0 -d 4 -p ACK -e 5 -c 2 -a 0 -i 0 -k MAC
r -t 15.350944033 -s 4 -d 4 -p ACK -e 5 -c 2 -a 0 -i 0 -k MAC
+ -t 15.781952000 -s 0 -d -1 -p BCN -e 20 -c 2 -a 34 -i 0 -k MAC 
- -t 15.781952000 -s 0 -d -1 -p BCN -e 20 -c 2 -a 34 -i 0 -k MAC
h -t 15.781952000 -s 0 -d -1 -p BCN -e 20 -c 2 -a 34 -i 0 -k MAC -R 15.00 -D 0.00
r -t 15.782784033 -s 3 -d -1 -p BCN -e 20 -c 2 -a 34 -i 0 -k MAC
+ -t 15.842464033 -s 4 -d 0 -p CM4 -e 16 -c 2 -a 0 -i 0 -k MAC 
- -t 15.842464033 -s 4 -d 0 -p CM4 -e 16 -c 2 -a 0 -i 0 -k MAC
h -t 15.842464033 -s 4 -d 0 -p CM4 -e 16 -c 2 -a 0 -i 0 -k MAC
r -t 15.843168067 -s 0 -d 0 -p CM4 -e 16 -c 2 -a 0 -i 0 -k MAC
+ -t 15.843392000 -s 0 -d 4 -p ACK -e 5 -c 2 -a 0 -i 0 -k MAC 
- -t 15.843392000 -s 0 -d 4 -p ACK -e 5 -c 2 -a 0 -i 0 -k MAC
h -t 15.843392000 -s 0 -d 4 -p ACK -e 5 -c 2 -a 0 -i 0 -k MAC
r -t 15.843744033 -s 4 -d 4 -p ACK -e 5 -c 2 -a 0 -i 0 -k MAC
+ -t 15.844032000 -s 0 -d 4 -p CM2 -e 25 -c 2 -a 0 -i 0 -k MAC 
- -t 15.844032000 -s 0 -d 4 -p CM2 -e 25 -c 2 -a 0 -i 0 -k MAC
h -t 15.844032000 -s 0 -d 4 -p CM2 -e 25 -c 2 -a 0 -i 0 -k MAC
r -t 15.845024033 -s 4 -d 4 -p CM2 -e 25 -c 2 -a 0 -i 0 -k MAC
+ -t 15.845216033 -s 4 -d 0 -p ACK -e 5 -c 2 -a 0 -i 0 -k MAC 
- -t 15.845216033 -s 4 -d 0 -p ACK -e 5 -c 2 -a 0 -i 0 -k MAC
h -t 15.845216033 -s 4 -d 0 -p ACK -e 5 -c 2 -a 0 -i 0 -k MAC
r -t 15.845568067 -s 0 -d 0 -p ACK -e 5 -c 2 -a 0 -i 0 -k MAC
n -t 15.846208034 -s 4 -S DLABEL -l [0] -L ""
+ -t 16.351200000 -s 5 -d 0 -p ACRP -e 17 -c 2 -a 0 -i 0 -k MAC 
- -t 16.351200000 -s 5 -d 0 -p ACRP -e 17 -c 2 -a 0 -i 0 -k MAC
h -t 16.351200000 -s 5 -d 0 -p ACRP -e 17 -c 2 -a 0 -i 0 -k MAC
r -t 16.351936033 -s 0 -d 0 -p ACRP -e 17 -c 2 -a 0 -i 0 -k MAC
+ -t 16.352192000 -s 0 -d 5 -p ACK -e 5 -c 2 -a 0 -i 0 -k MAC 
- -t 16.352192000 -s 0 -d 5 -p ACK -e 5 -c 2 -a 0 -i 0 -k MAC
h -t 16.352192000 -s 0 -d 5 -p ACK -e 5 -c 2 -a 0 -i 0 -k MAC
r -t 16.352544033 -s 5 -d 5 -p ACK -e 5 -c 2 -a 0 -i 0 -k MAC
+ -t 16.844064033 -s 5 -d 0 -p CM4 -e 16 -c 2 -a 0 -i 0 -k MAC 
- -t 16.844064033 -s 5 -d 0 -p CM4 -e 16 -c 2 -a 0 -i 0 -k MAC
h -t 16.844064033 -s 5 -d 0 -p CM4 -e 16 -c 2 -a 0 -i 0 -k MAC
r -t 16.844768067 -s 0 -d 0 -p CM4 -e 16 -c 2 -a 0 -i 0 -k MAC
+ -t 16.844992000 -s 0 -d 5 -p ACK -e 5 -c 2 -a 0 -i 0 -k MAC 
- -t 16.844992000 -s 0 -d 5 -p ACK -e 5 -c 2 -a 0 -i 0 -k MAC
h -t 16.844992000 -s 0 -d 5 -p ACK -e 5 -c 2 -a 0 -i 0 -k MAC
r -t 16.845344033 -s 5 -d 5 -p ACK -e 5 -c 2 -a 0 -i 0 -k MAC
+ -t 16.845632000 -s 0 -d 5 -p CM2 -e 25 -c 2 -a 0 -i 0 -k MAC 
- -t 16.845632000 -s 0 -d 5 -p CM2 -e 25 -c 2 -a 0 -i 0 -k MAC
h -t 16.845632000 -s 0 -d 5 -p CM2 -e 25 -c 2 -a 0 -i 0 -k MAC
r -t 16.846624033 -s 5 -d 5 -p CM2 -e 25 -c 2 -a 0 -i 0 -k MAC
+ -t 16.846816033 -s 5 -d 0 -p ACK -e 5 -c 2 -a 0 -i 0 -k MAC 
- -t 16.846816033 -s 5 -d 0 -p ACK -e 5 -c 2 -a 0 -i 0 -k MAC
h -t 16.846816033 -s 5 -d 0 -p ACK -e 5 -c 2 -a 0 -i 0 -k MAC
r -t 16.847168067 -s 0 -d 0 -p ACK -e 5 -c 2 -a 0 -i 0 -k MAC
n -t 16.847808034 -s 5 -S DLABEL -l [0] -L ""
+ -t 17.298400000 -s 1 -d -1 -p CM7 -e 8 -c 2 -a 0 -i 0 -k MAC 
- -t 17.298400000 -s 1 -d -1 -p CM7 -e 8 -c 2 -a 0 -i 0 -k MAC
h -t 17.298400000 -s 1 -d -1 -p CM7 -e 8 -c 2 -a 0 -i 0 -k MAC -R 15.00 -D 0.00
+ -t 17.350560000 -s 6 -d 0 -p ACRP -e 17 -c 2 -a 0 -i 0 -k MAC 
- -t 17.350560000 -s 6 -d 0 -p ACRP -e 17 -c 2 -a 0 -i 0 -k MAC
h -t 17.350560000 -s 6 -d 0 -p ACRP -e 17 -c 2 -a 0 -i 0 -k MAC
r -t 17.351296033 -s 0 -d 0 -p ACRP -e 17 -c 2 -a 0 -i 0 -k MAC
+ -t 17.351552000 -s 0 -d 6 -p ACK -e 5 -c 2 -a 0 -i 0 -k MAC 
- -t 17.351552000 -s 0 -d 6 -p ACK -e 5 -c 2 -a 0 -i 0 -k MAC
h -t 17.351552000 -s 0 -d 6 -p ACK -e 5 -c 2 -a 0 -i 0 -k MAC
r -t 17.351904033 -s 6 -d 6 -p ACK -e 5 -c 2 -a 0 -i 0 -k MAC
+ -t 17.748032000 -s 0 -d -1 -p BCN -e 20 -c 2 -a 34 -i 0 -k MAC 
- -t 17.748032000 -s 0 -d -1 -p BCN -e 20 -c 2 -a 34 -i 0 -k MAC
h -t 17.748032000 -s 0 -d -1 -p BCN -e 20 -c 2 -a 34 -i 0 -k MAC -R 15.00 -D 0.00
r -t 17.748864033 -s 3 -d -1 -p BCN -e 20 -c 2 -a 34 -i 0 -k MAC
r -t 17.748864033 -s 4 -d -1 -p BCN -e 20 -c 2 -a 34 -i 0 -k MAC
r -t 17.748864033 -s 5 -d -1 -p BCN -e 20 -c 2 -a 34 -i 0 -k MAC
+ -t 17.843424033 -s 6 -d 0 -p CM4 -e 16 -c 2 -a 0 -i 0 -k MAC 
- -t 17.843424033 -s 6 -d 0 -p CM4 -e 16 -c 2 -a 0 -i 0 -k MAC
h -t 17.843424033 -s 6 -d 0 -p CM4 -e 16 -c 2 -a 0 -i 0 -k MAC
r -t 17.844128067 -s 0 -d 0 -p CM4 -e 16 -c 2 -a 0 -i 0 -k MAC
+ -t 17.844352000 -s 0 -d 6 -p ACK -e 5 -c 2 -a 0 -i 0 -k MAC 
- -t 17.844352000 -s 0 -d 6 -p ACK -e 5 -c 2 -a 0 -i 0 -k MAC
h -t 17.844352000 -s 0 -d 6 -p ACK -e 5 -c 2 -a 0 -i 0 -k MAC
r -t 17.844704033 -s 6 -d 6 -p ACK -e 5 -c 2 -a 0 -i 0 -k MAC
+ -t 17.844992000 -s 0 -d 6 -p CM2 -e 25 -c 2 -a 0 -i 0 -k MAC 
- -t 17.844992000 -s 0 -d 6 -p CM2 -e 25 -c 2 -a 0 -i 0 -k MAC
h -t 17.844992000 -s 0 -d 6 -p CM2 -e 25 -c 2 -a 0 -i 0 -k MAC
r -t 17.845984033 -s 6 -d 6 -p CM2 -e 25 -c 2 -a 0 -i 0 -k MAC
+ -t 17.846176033 -s 6 -d 0 -p ACK -e 5 -c 2 -a 0 -i 0 -k MAC 
- -t 17.846176033 -s 6 -d 0 -p ACK -e 5 -c 2 -a 0 -i 0 -k MAC
h -t 17.846176033 -s 6 -d 0 -p ACK -e 5 -c 2 -a 0 -i 0 -k MAC
r -t 17.846528067 -s 0 -d 0 -p ACK -e 5 -c 2 -a 0 -i 0 -k MAC
n -t 17.847168034 -s 6 -S DLABEL -l [0] -L ""
+ -t 18.298400000 -s 2 -d -1 -p CM7 -e 8 -c 2 -a 0 -i 0 -k MAC 
- -t 18.298400000 -s 2 -d -1 -p CM7 -e 8 -c 2 -a 0 -i 0 -k MAC
h -t 18.298400000 -s 2 -d -1 -p CM7 -e 8 -c 2 -a 0 -i 0 -k MAC -R 15.00 -D 0.00
d -t 18.298848033 -s 1 -d -1 -p CM7 -e 8 -c 2 -a 0 -i 0 -k MAC
+ -t 18.502272000 -s 0 -d -1 -p AODV -e 55 -c 2 -a 32 -i 0 -k MAC 
- -t 18.502272000 -s 0 -d -1 -p AODV -e 55 -c 2 -a 32 -i 0 -k MAC
h -t 18.502272000 -s 0 -d -1 -p AODV -e 55 -c 2 -a 32 -i 0 -k MAC -R 15.00 -D 0.00
r -t 18.504864033 -s 3 -d -1 -p AODV -e 48 -c 2 -a 32 -i 0 -k MAC
r -t 18.504864033 -s 6 -d -1 -p AODV -e 48 -c 2 -a 32 -i 0 -k MAC
r -t 18.504864033 -s 4 -d -1 -p AODV -e 48 -c 2 -a 32 -i 0 -k MAC
r -t 18.504864033 -s 5 -d -1 -p AODV -e 48 -c 2 -a 32 -i 0 -k MAC
+ -t 18.507072033 -s 3 -d -1 -p ARP -e 35 -c 2 -a 33 -i 0 -k MAC 
- -t 18.507072033 -s 3 -d -1 -p ARP -e 35 -c 2 -a 33 -i 0 -k MAC
h -t 18.507072033 -s 3 -d -1 -p ARP -e 35 -c 2 -a 33 -i 0 -k MAC -R 15.00 -D 0.00
+ -t 18.507416176 -s 6 -d -1 -p AODV -e 55 -c 2 -a 32 -i 0 -k MAC 
- -t 18.507416176 -s 6 -d -1 -p AODV -e 55 -c 2 -a 32 -i 0 -k MAC
h -t 18.507416176 -s 6 -d -1 -p AODV -e 55 -c 2 -a 32 -i 0 -k MAC -R 15.00 -D 0.00
d -t 18.508384067 -s 0 -d -1 -p ARP -e 35 -c 2 -a 33 -i 0 -k MAC
r -t 18.509024067 -s 4 -d -1 -p ARP -e 28 -c 2 -a 33 -i 0 -k MAC
r -t 18.510008209 -s 5 -d -1 -p AODV -e 48 -c 2 -a 32 -i 0 -k MAC
+ -t 18.514752033 -s 4 -d -1 -p AODV -e 55 -c 2 -a 32 -i 0 -k MAC 
- -t 18.514752033 -s 4 -d -1 -p AODV -e 55 -c 2 -a 32 -i 0 -k MAC
h -t 18.514752033 -s 4 -d -1 -p AODV -e 55 -c 2 -a 32 -i 0 -k MAC -R 15.00 -D 0.00
r -t 18.517344067 -s 0 -d -1 -p AODV -e 48 -c 2 -a 32 -i 0 -k MAC
r -t 18.517344067 -s 3 -d -1 -p AODV -e 48 -c 2 -a 32 -i 0 -k MAC
r -t 18.517344067 -s 5 -d -1 -p AODV -e 48 -c 2 -a 32 -i 0 -k MAC
+ -t 18.519872000 -s 0 -d -1 -p AODV -e 55 -c 2 -a 32 -i 0 -k MAC 
- -t 18.519872000 -s 0 -d -1 -p AODV -e 55 -c 2 -a 32 -i 0 -k MAC
h -t 18.519872000 -s 0 -d -1 -p AODV -e 55 -c 2 -a 32 -i 0 -k MAC -R 15.00 -D 0.00
r -t 18.522464033 -s 3 -d -1 -p AODV -e 48 -c 2 -a 32 -i 0 -k MAC
r -t 18.522464033 -s 6 -d -1 -p AODV -e 48 -c 2 -a 32 -i 0 -k MAC
r -t 18.522464033 -s 4 -d -1 -p AODV -e 48 -c 2 -a 32 -i 0 -k MAC
r -t 18.522464033 -s 5 -d -1 -p AODV -e 48 -c 2 -a 32 -i 0 -k MAC
+ -t 18.528803019 -s 6 -d -1 -p AODV -e 55 -c 2 -a 32 -i 0 -k MAC 
- -t 18.528803019 -s 6 -d -1 -p AODV -e 55 -c 2 -a 32 -i 0 -k MAC
h -t 18.528803019 -s 6 -d -1 -p AODV -e 55 -c 2 -a 32 -i 0 -k MAC -R 15.00 -D 0.00
r -t 18.531395052 -s 0 -d -1 -p AODV -e 48 -c 2 -a 32 -i 0 -k MAC
r -t 18.531395052 -s 5 -d -1 -p AODV -e 48 -c 2 -a 32 -i 0 -k MAC
+ -t 18.531712033 -s 5 -d -1 -p AODV -e 55 -c 2 -a 32 -i 0 -k MAC 
- -t 18.531712033 -s 5 -d -1 -p AODV -e 55 -c 2 -a 32 -i 0 -k MAC
h -t 18.531712033 -s 5 -d -1 -p AODV -e 55 -c 2 -a 32 -i 0 -k MAC -R 15.00 -D 0.00
+ -t 18.534272033 -s 3 -d -1 -p AODV -e 55 -c 2 -a 32 -i 0 -k MAC 
- -t 18.534272033 -s 3 -d -1 -p AODV -e 55 -c 2 -a 32 -i 0 -k MAC
h -t 18.534272033 -s 3 -d -1 -p AODV -e 55 -c 2 -a 32 -i 0 -k MAC -R 15.00 -D 0.00
r -t 18.534304067 -s 0 -d -1 -p AODV -e 48 -c 2 -a 32 -i 0 -k MAC
r -t 18.534304067 -s 6 -d -1 -p AODV -e 48 -c 2 -a 32 -i 0 -k MAC
r -t 18.534304067 -s 4 -d -1 -p AODV -e 48 -c 2 -a 32 -i 0 -k MAC
+ -t 18.536512033 -s 5 -d -1 -p AODV -e 55 -c 2 -a 32 -i 0 -k MAC 
- -t 18.536512033 -s 5 -d -1 -p AODV -e 55 -c 2 -a 32 -i 0 -k MAC
h -t 18.536512033 -s 5 -d -1 -p AODV -e 55 -c 2 -a 32 -i 0 -k MAC -R 15.00 -D 0.00
r -t 18.536864067 -s 0 -d -1 -p AODV -e 48 -c 2 -a 32 -i 0 -k MAC
r -t 18.536864067 -s 4 -d -1 -p AODV -e 48 -c 2 -a 32 -i 0 -k MAC
r -t 18.539104067 -s 0 -d -1 -p AODV -e 48 -c 2 -a 32 -i 0 -k MAC
r -t 18.539104067 -s 6 -d -1 -p AODV -e 48 -c 2 -a 32 -i 0 -k MAC
r -t 18.539104067 -s 4 -d -1 -p AODV -e 48 -c 2 -a 32 -i 0 -k MAC
+ -t 18.546112033 -s 4 -d -1 -p AODV -e 55 -c 2 -a 32 -i 0 -k MAC 
- -t 18.546112033 -s 4 -d -1 -p AODV -e 55 -c 2 -a 32 -i 0 -k MAC
h -t 18.546112033 -s 4 -d -1 -p AODV -e 55 -c 2 -a 32 -i 0 -k MAC -R 15.00 -D 0.00
r -t 18.548704067 -s 0 -d -1 -p AODV -e 48 -c 2 -a 32 -i 0 -k MAC
r -t 18.548704067 -s 3 -d -1 -p AODV -e 48 -c 2 -a 32 -i 0 -k MAC
r -t 18.548704067 -s 5 -d -1 -p AODV -e 48 -c 2 -a 32 -i 0 -k MAC
+ -t 19.002432000 -s 0 -d -1 -p AODV -e 55 -c 2 -a 32 -i 0 -k MAC 
- -t 19.002432000 -s 0 -d -1 -p AODV -e 55 -c 2 -a 32 -i 0 -k MAC
h -t 19.002432000 -s 0 -d -1 -p AODV -e 55 -c 2 -a 32 -i 0 -k MAC -R 15.00 -D 0.00
r -t 19.005024033 -s 3 -d -1 -p AODV -e 48 -c 2 -a 32 -i 0 -k MAC
r -t 19.005024033 -s 6 -d -1 -p AODV -e 48 -c 2 -a 32 -i 0 -k MAC
r -t 19.005024033 -s 4 -d -1 -p AODV -e 48 -c 2 -a 32 -i 0 -k MAC
r -t 19.005024033 -s 5 -d -1 -p AODV -e 48 -c 2 -a 32 -i 0 -k MAC
+ -t 19.008192033 -s 5 -d -1 -p ARP -e 35 -c 2 -a 33 -i 0 -k MAC 
- -t 19.008192033 -s 5 -d -1 -p ARP -e 35 -c 2 -a 33 -i 0 -k MAC
h -t 19.008192033 -s 5 -d -1 -p ARP -e 35 -c 2 -a 33 -i 0 -k MAC -R 15.00 -D 0.00
r -t 19.010144067 -s 0 -d -1 -p ARP -e 28 -c 2 -a 33 -i 0 -k MAC
r -t 19.010144067 -s 6 -d -1 -p ARP -e 28 -c 2 -a 33 -i 0 -k MAC
r -t 19.010144067 -s 4 -d -1 -p ARP -e 28 -c 2 -a 33 -i 0 -k MAC
+ -t 19.012992033 -s 4 -d -1 -p AODV -e 55 -c 2 -a 32 -i 0 -k MAC 
- -t 19.012992033 -s 4 -d -1 -p AODV -e 55 -c 2 -a 32 -i 0 -k MAC
h -t 19.012992033 -s 4 -d -1 -p AODV -e 55 -c 2 -a 32 -i 0 -k MAC -R 15.00 -D 0.00
+ -t 19.015151784 -s 6 -d -1 -p AODV -e 55 -c 2 -a 32 -i 0 -k MAC 
- -t 19.015151784 -s 6 -d -1 -p AODV -e 55 -c 2 -a 32 -i 0 -k MAC
h -t 19.015151784 -s 6 -d -1 -p AODV -e 55 -c 2 -a 32 -i 0 -k MAC -R 15.00 -D 0.00
r -t 19.015584067 -s 0 -d -1 -p AODV -e 48 -c 2 -a 32 -i 0 -k MAC
r -t 19.015584067 -s 3 -d -1 -p AODV -e 48 -c 2 -a 32 -i 0 -k MAC
r -t 19.015584067 -s 5 -d -1 -p AODV -e 48 -c 2 -a 32 -i 0 -k MAC
+ -t 19.016832033 -s 3 -d -1 -p AODV -e 55 -c 2 -a 32 -i 0 -k MAC 
- -t 19.016832033 -s 3 -d -1 -p AODV -e 55 -c 2 -a 32 -i 0 -k MAC
h -t 19.016832033 -s 3 -d -1 -p AODV -e 55 -c 2 -a 32 -i 0 -k MAC -R 15.00 -D 0.00
r -t 19.017743817 -s 5 -d -1 -p AODV -e 48 -c 2 -a 32 -i 0 -k MAC
d -t 19.018784067 -s 0 -d -1 -p AODV -e 55 -c 2 -a 32 -i 0 -k MAC
r -t 19.019424067 -s 4 -d -1 -p AODV -e 48 -c 2 -a 32 -i 0 -k MAC
+ -t 19.714112000 -s 0 -d -1 -p BCN -e 12 -c 2 -a 34 -i 0 -k MAC 
- -t 19.714112000 -s 0 -d -1 -p BCN -e 12 -c 2 -a 34 -i 0 -k MAC
h -t 19.714112000 -s 0 -d -1 -p BCN -e 12 -c 2 -a 34 -i 0 -k MAC -R 15.00 -D 0.00
r -t 19.714688033 -s 3 -d -1 -p BCN -e 12 -c 2 -a 34 -i 0 -k MAC
r -t 19.714688033 -s 6 -d -1 -p BCN -e 12 -c 2 -a 34 -i 0 -k MAC
r -t 19.714688033 -s 4 -d -1 -p BCN -e 12 -c 2 -a 34 -i 0 -k MAC
r -t 19.714688033 -s 5 -d -1 -p BCN -e 12 -c 2 -a 34 -i 0 -k MAC
+ -t 21.247520000 -s 1 -d -1 -p CM7 -e 8 -c 2 -a 0 -i 0 -k MAC 
- -t 21.247520000 -s 1 -d -1 -p CM7 -e 8 -c 2 -a 0 -i 0 -k MAC
h -t 21.247520000 -s 1 -d -1 -p CM7 -e 8 -c 2 -a 0 -i 0 -k MAC -R 15.00 -D 0.00
+ -t 21.680192000 -s 0 -d -1 -p BCN -e 12 -c 2 -a 34 -i 0 -k MAC 
- -t 21.680192000 -s 0 -d -1 -p BCN -e 12 -c 2 -a 34 -i 0 -k MAC
h -t 21.680192000 -s 0 -d -1 -p BCN -e 12 -c 2 -a 34 -i 0 -k MAC -R 15.00 -D 0.00
r -t 21.680768033 -s 3 -d -1 -p BCN -e 12 -c 2 -a 34 -i 0 -k MAC
r -t 21.680768033 -s 6 -d -1 -p BCN -e 12 -c 2 -a 34 -i 0 -k MAC
r -t 21.680768033 -s 4 -d -1 -p BCN -e 12 -c 2 -a 34 -i 0 -k MAC
r -t 21.680768033 -s 5 -d -1 -p BCN -e 12 -c 2 -a 34 -i 0 -k MAC
+ -t 21.681472000 -s 0 -d -1 -p ARP -e 35 -c 2 -a 33 -i 0 -k MAC 
- -t 21.681472000 -s 0 -d -1 -p ARP -e 35 -c 2 -a 33 -i 0 -k MAC
h -t 21.681472000 -s 0 -d -1 -p ARP -e 35 -c 2 -a 33 -i 0 -k MAC -R 15.00 -D 0.00
+ -t 21.683072033 -s 5 -d 0 -p ACK -e 5 -c 2 -a 0 -i 0 -k MAC 
- -t 21.683072033 -s 5 -d 0 -p ACK -e 5 -c 2 -a 0 -i 0 -k MAC
h -t 21.683072033 -s 5 -d 0 -p ACK -e 5 -c 2 -a 0 -i 0 -k MAC
r -t 21.683424067 -s 0 -d 0 -p ACK -e 5 -c 2 -a 0 -i 0 -k MAC
r -t 21.684064033 -s 5 -d -1 -p ARP -e 28 -c 2 -a 33 -i 0 -k MAC
+ -t 21.685312033 -s 5 -d 0 -p AODV -e 51 -c 2 -a 32 -i 0 -k MAC 
- -t 21.685312033 -s 5 -d 0 -p AODV -e 51 -c 2 -a 32 -i 0 -k MAC
h -t 21.685312033 -s 5 -d 0 -p AODV -e 51 -c 2 -a 32 -i 0 -k MAC
+ -t 21.687552000 -s 0 -d 5 -p ACK -e 5 -c 2 -a 0 -i 0 -k MAC 
- -t 21.687552000 -s 0 -d 5 -p ACK -e 5 -c 2 -a 0 -i 0 -k MAC
h -t 21.687552000 -s 0 -d 5 -p ACK -e 5 -c 2 -a 0 -i 0 -k MAC
r -t 21.687904033 -s 5 -d 5 -p ACK -e 5 -c 2 -a 0 -i 0 -k MAC
r -t 21.688544000 -s 0 -d 0 -p AODV -e 44 -c 2 -a 32 -i 0 -k MAC
+ -t 21.690432000 -s 0 -d 5 -p tcp -e 47 -c 2 -a 39 -i 2 -k MAC 
- -t 21.690432000 -s 0 -d 5 -p tcp -e 47 -c 2 -a 39 -i 2 -k MAC
h -t 21.690432000 -s 0 -d 5 -p tcp -e 47 -c 2 -a 39 -i 2 -k MAC
+ -t 21.692352033 -s 5 -d 0 -p ACK -e 5 -c 2 -a 0 -i 2 -k MAC 
- -t 21.692352033 -s 5 -d 0 -p ACK -e 5 -c 2 -a 0 -i 2 -k MAC
h -t 21.692352033 -s 5 -d 0 -p ACK -e 5 -c 2 -a 0 -i 2 -k MAC
r -t 21.692704067 -s 0 -d 0 -p ACK -e 5 -c 2 -a 0 -i 2 -k MAC
r -t 21.693344033 -s 5 -d 5 -p tcp -e 40 -c 2 -a 39 -i 2 -k MAC
+ -t 22.246880000 -s 2 -d -1 -p CM7 -e 8 -c 2 -a 0 -i 0 -k MAC 
- -t 22.246880000 -s 2 -d -1 -p CM7 -e 8 -c 2 -a 0 -i 0 -k MAC
h -t 22.246880000 -s 2 -d -1 -p CM7 -e 8 -c 2 -a 0 -i 0 -k MAC -R 15.00 -D 0.00
d -t 22.247328033 -s 1 -d -1 -p CM7 -e 8 -c 2 -a 0 -i 0 -k MAC
+ -t 23.646272000 -s 0 -d -1 -p BCN -e 12 -c 2 -a 34 -i 0 -k MAC 
- -t 23.646272000 -s 0 -d -1 -p BCN -e 12 -c 2 -a 34 -i 0 -k MAC
h -t 23.646272000 -s 0 -d -1 -p BCN -e 12 -c 2 -a 34 -i 0 -k MAC -R 15.00 -D 0.00
r -t 23.646848033 -s 3 -d -1 -p BCN -e 12 -c 2 -a 34 -i 0 -k MAC
r -t 23.646848033 -s 6 -d -1 -p BCN -e 12 -c 2 -a 34 -i 0 -k MAC
r -t 23.646848033 -s 4 -d -1 -p BCN -e 12 -c 2 -a 34 -i 0 -k MAC
r -t 23.646848033 -s 5 -d -1 -p BCN -e 12 -c 2 -a 34 -i 0 -k MAC
+ -t 23.648192033 -s 5 -d 0 -p ack -e 47 -c 2 -a 40 -i 9 -k MAC 
- -t 23.648192033 -s 5 -d 0 -p ack -e 47 -c 2 -a 40 -i 9 -k MAC
h -t 23.648192033 -s 5 -d 0 -p ack -e 47 -c 2 -a 40 -i 9 -k MAC
+ -t 23.650112000 -s 0 -d 5 -p ACK -e 5 -c 2 -a 0 -i 9 -k MAC 
- -t 23.650112000 -s 0 -d 5 -p ACK -e 5 -c 2 -a 0 -i 9 -k MAC
h -t 23.650112000 -s 0 -d 5 -p ACK -e 5 -c 2 -a 0 -i 9 -k MAC
r -t 23.650464033 -s 5 -d 5 -p ACK -e 5 -c 2 -a 0 -i 9 -k MAC
r -t 23.651104000 -s 0 -d 0 -p ack -e 40 -c 2 -a 40 -i 9 -k MAC
+ -t 23.653312000 -s 0 -d 5 -p tcp -e 47 -c 2 -a 39 -i 5 -k MAC 
- -t 23.653312000 -s 0 -d 5 -p tcp -e 47 -c 2 -a 39 -i 5 -k MAC
h -t 23.653312000 -s 0 -d 5 -p tcp -e 47 -c 2 -a 39 -i 5 -k MAC
+ -t 23.655232033 -s 5 -d 0 -p ACK -e 5 -c 2 -a 0 -i 5 -k MAC 
- -t 23.655232033 -s 5 -d 0 -p ACK -e 5 -c 2 -a 0 -i 5 -k MAC
h -t 23.655232033 -s 5 -d 0 -p ACK -e 5 -c 2 -a 0 -i 5 -k MAC
r -t 23.655584067 -s 0 -d 0 -p ACK -e 5 -c 2 -a 0 -i 5 -k MAC
r -t 23.656224033 -s 5 -d 5 -p tcp -e 40 -c 2 -a 39 -i 5 -k MAC
+ -t 23.657152000 -s 0 -d 5 -p tcp -e 47 -c 2 -a 39 -i 8 -k MAC 
- -t 23.657152000 -s 0 -d 5 -p tcp -e 47 -c 2 -a 39 -i 8 -k MAC
h -t 23.657152000 -s 0 -d 5 -p tcp -e 47 -c 2 -a 39 -i 8 -k MAC
+ -t 23.659072033 -s 5 -d 0 -p ACK -e 5 -c 2 -a 0 -i 8 -k MAC 
- -t 23.659072033 -s 5 -d 0 -p ACK -e 5 -c 2 -a 0 -i 8 -k MAC
h -t 23.659072033 -s 5 -d 0 -p ACK -e 5 -c 2 -a 0 -i 8 -k MAC
r -t 23.659424067 -s 0 -d 0 -p ACK -e 5 -c 2 -a 0 -i 8 -k MAC
r -t 23.660064033 -s 5 -d 5 -p tcp -e 40 -c 2 -a 39 -i 8 -k MAC