s -t 0.000640000 -Hs 0 -Hd -1 -Ni 0 -Nx 25.00 -Ny 25.00 -Nz 0.00 -Ne 0.999904 -Nl MAC -Nw --- -Ma 0 -Md ffffffff -Ms 0 -Mt 0 
N -t 0.000640 -n 3 -e 0.999866
N -t 0.000640 -n 6 -e 0.999866
N -t 0.000640 -n 1 -e 0.999866
N -t 0.000640 -n 4 -e 0.999866
N -t 0.000640 -n 2 -e 0.999866
N -t 0.000640 -n 5 -e 0.999866
r -t 0.001088033 -Hs 3 -Hd -1 -Ni 3 -Nx 19.99 -Ny 33.66 -Nz 0.00 -Ne 0.999866 -Nl MAC -Nw --- -Ma 0 -Md ffffffff -Ms 0 -Mt 0 
r -t 0.001088033 -Hs 6 -Hd -1 -Ni 6 -Nx 30.02 -Ny 16.35 -Nz 0.00 -Ne 0.999866 -Nl MAC -Nw --- -Ma 0 -Md ffffffff -Ms 0 -Mt 0 
r -t 0.001088033 -Hs 1 -Hd -1 -Ni 1 -Nx 35.00 -Ny 25.00 -Nz 0.00 -Ne 0.999866 -Nl MAC -Nw --- -Ma 0 -Md ffffffff -Ms 0 -Mt 0 
r -t 0.001088033 -Hs 4 -Hd -1 -Ni 4 -Nx 15.00 -Ny 24.99 -Nz 0.00 -Ne 0.999866 -Nl MAC -Nw --- -Ma 0 -Md ffffffff -Ms 0 -Mt 0 
r -t 0.001088033 -Hs 2 -Hd -1 -Ni 2 -Nx 30.00 -Ny 33.66 -Nz 0.00 -Ne 0.999866 -Nl MAC -Nw --- -Ma 0 -Md ffffffff -Ms 0 -Mt 0 
r -t 0.001088033 -Hs 5 -Hd -1 -Ni 5 -Nx 20.01 -Ny 16.33 -Nz 0.00 -Ne 0.999866 -Nl MAC -Nw --- -Ma 0 -Md ffffffff -Ms 0 -Mt 0 
s -t 0.500320000 -Hs 1 -Hd -1 -Ni 1 -Nx 35.00 -Ny 25.00 -Nz 0.00 -Ne 0.999770 -Nl MAC -Nw --- -Ma 0 -Md ffffffff -Ms 1 -Mt 0 
N -t 0.500320 -n 6 -e 0.999731
N -t 0.500320 -n 0 -e 0.999635
N -t 0.500320 -n 2 -e 0.999731
r -t 0.500768033 -Hs 6 -Hd -1 -Ni 6 -Nx 30.02 -Ny 16.35 -Nz 0.00 -Ne 0.999731 -Nl MAC -Nw --- -Ma 0 -Md ffffffff -Ms 1 -Mt 0 
d -t 0.500768033 -Hs 0 -Hd -1 -Ni 0 -Nx 25.00 -Ny 25.00 -Nz 0.00 -Ne 0.999635 -Nl MAC -Nw APS -Ma 0 -Md ffffffff -Ms 1 -Mt 0 
r -t 0.500768033 -Hs 2 -Hd -1 -Ni 2 -Nx 30.00 -Ny 33.66 -Nz 0.00 -Ne 0.999731 -Nl MAC -Nw --- -Ma 0 -Md ffffffff -Ms 1 -Mt 0 
s -t 1.000640000 -Hs 0 -Hd -1 -Ni 0 -Nx 25.00 -Ny 25.00 -Nz 0.00 -Ne 0.999539 -Nl MAC -Nw --- -Ma 0 -Md ffffffff -Ms 0 -Mt 0 
N -t 1.000640 -n 3 -e 0.999731
N -t 1.000640 -n 6 -e 0.999597
N -t 1.000640 -n 1 -e 0.999501
N -t 1.000640 -n 4 -e 0.999731
N -t 1.000640 -n 2 -e 0.999597
N -t 1.000640 -n 5 -e 0.999731
s -t 1.502240000 -Hs 2 -Hd -1 -Ni 2 -Nx 30.00 -Ny 33.66 -Nz 0.00 -Ne 0.999501 -Nl MAC -Nw --- -Ma 0 -Md ffffffff -Ms 2 -Mt 0 
N -t 1.502240 -n 0 -e 0.999270
N -t 1.502240 -n 3 -e 0.999597
N -t 1.502240 -n 1 -e 0.999366
r -t 1.502688033 -Hs 3 -Hd -1 -Ni 3 -Nx 19.99 -Ny 33.66 -Nz 0.00 -Ne 0.999597 -Nl MAC -Nw --- -Ma 0 -Md ffffffff -Ms 2 -Mt 0 
d -t 1.502688033 -Hs 1 -Hd -1 -Ni 1 -Nx 35.00 -Ny 25.00 -Nz 0.00 -Ne 0.999366 -Nl MAC -Nw APS -Ma 0 -Md ffffffff -Ms 2 -Mt 0 
s -t 2.000320000 -Hs 0 -Hd -1 -Ni 0 -Nx 25.00 -Ny 25.00 -Nz 0.00 -Ne 0.999174 -Nl MAC -Nw --- -Ma 0 -Md ffffffff -Ms 0 -Mt 0 
N -t 2.000320 -n 3 -e 0.999462
N -t 2.000320 -n 6 -e 0.999462
N -t 2.000320 -n 1 -e 0.999232
N -t 2.000320 -n 4 -e 0.999597
N -t 2.000320 -n 2 -e 0.999232
N -t 2.000320 -n 5 -e 0.999597
s -t 2.483040000 -Hs 1 -Hd -1 -Ni 1 -Nx 35.00 -Ny 25.00 -Nz 0.00 -Ne 0.999136 -Nl MAC -Nw --- -Ma 0 -Md ffffffff -Ms 1 -Mt 0 
N -t 2.483040 -n 6 -e 0.999328
N -t 2.483040 -n 0 -e 0.998906
N -t 2.483040 -n 2 -e 0.999098
s -t 2.502240000 -Hs 3 -Hd -1 -Ni 3 -Nx 19.99 -Ny 33.66 -Nz 0.00 -Ne 0.999366 -Nl MAC -Nw --- -Ma 0 -Md ffffffff -Ms 3 -Mt 0 
N -t 2.502240 -n 0 -e 0.998771
N -t 2.502240 -n 4 -e 0.999462
N -t 2.502240 -n 2 -e 0.998963
r -t 2.502688033 -Hs 4 -Hd -1 -Ni 4 -Nx 15.00 -Ny 24.99 -Nz 0.00 -Ne 0.999462 -Nl MAC -Nw --- -Ma 0 -Md ffffffff -Ms 3 -Mt 0 
d -t 2.502688033 -Hs 2 -Hd -1 -Ni 2 -Nx 30.00 -Ny 33.66 -Nz 0.00 -Ne 0.998963 -Nl MAC -Nw APS -Ma 0 -Md ffffffff -Ms 3 -Mt 0 
s -t 2.999552000 -Hs 0 -Hd -1 -Ni 0 -Nx 25.00 -Ny 25.00 -Nz 0.00 -Ne 0.998771 -Nl MAC -Nw --- -Ma 0 -Md ffffffff -Ms 0 -Mt 0 
N -t 2.999552 -n 3 -e 0.999059
N -t 2.999552 -n 6 -e 0.999155
N -t 2.999552 -n 1 -e 0.998829
N -t 2.999552 -n 4 -e 0.999290
N -t 2.999552 -n 2 -e 0.998790
N -t 2.999552 -n 5 -e 0.999424
s -t 3.486240000 -Hs 2 -Hd -1 -Ni 2 -Nx 30.00 -Ny 33.66 -Nz 0.00 -Ne 0.998694 -Nl MAC -Nw --- -Ma 0 -Md ffffffff -Ms 2 -Mt 0 
N -t 3.486240 -n 0 -e 0.998464
N -t 3.486240 -n 3 -e 0.998925
N -t 3.486240 -n 1 -e 0.998694
d -t 3.486688033 -Hs 1 -Hd -1 -Ni 1 -Nx 35.00 -Ny 25.00 -Nz 0.00 -Ne 0.998694 -Nl MAC -Nw APS -Ma 0 -Md ffffffff -Ms 2 -Mt 0 
s -t 3.502560000 -Hs 4 -Hd -1 -Ni 4 -Nx 15.00 -Ny 24.99 -Nz 0.00 -Ne 0.999194 -Nl MAC -Nw --- -Ma 0 -Md ffffffff -Ms 4 -Mt 0 
N -t 3.502560 -n 0 -e 0.998330
N -t 3.502560 -n 3 -e 0.998790
N -t 3.502560 -n 5 -e 0.999290
r -t 3.503008033 -Hs 0 -Hd -1 -Ni 0 -Nx 25.00 -Ny 25.00 -Nz 0.00 -Ne 0.998330 -Nl MAC -Nw --- -Ma 0 -Md ffffffff -Ms 4 -Mt 0 
d -t 3.503008033 -Hs 3 -Hd -1 -Ni 3 -Nx 19.99 -Ny 33.66 -Nz 0.00 -Ne 0.998790 -Nl MAC -Nw APS -Ma 0 -Md ffffffff -Ms 4 -Mt 0 
r -t 3.503008033 -Hs 5 -Hd -1 -Ni 5 -Nx 20.01 -Ny 16.33 -Nz 0.00 -Ne 0.999290 -Nl MAC -Nw --- -Ma 0 -Md ffffffff -Ms 4 -Mt 0 
s -t 3.982592000 -Hs 0 -Hd -1 -Ni 0 -Nx 25.00 -Ny 25.00 -Nz 0.00 -Ne 0.998330 -Nl MAC -Nw --- -Ma 0 -Md ffffffff -Ms 0 -Mt 0 
N -t 3.982592 -n 3 -e 0.998618
N -t 3.982592 -n 6 -e 0.998982
N -t 3.982592 -n 1 -e 0.998522
N -t 3.982592 -n 4 -e 0.998886
N -t 3.982592 -n 2 -e 0.998387
N -t 3.982592 -n 5 -e 0.999117
s -t 4.465760000 -Hs 1 -Hd -1 -Ni 1 -Nx 35.00 -Ny 25.00 -Nz 0.00 -Ne 0.998426 -Nl MAC -Nw --- -Ma 0 -Md ffffffff -Ms 1 -Mt 0 
N -t 4.465760 -n 6 -e 0.998848
N -t 4.465760 -n 0 -e 0.998022
N -t 4.465760 -n 2 -e 0.998253
s -t 4.486240000 -Hs 3 -Hd -1 -Ni 3 -Nx 19.99 -Ny 33.66 -Nz 0.00 -Ne 0.998522 -Nl MAC -Nw --- -Ma 0 -Md ffffffff -Ms 3 -Mt 0 
N -t 4.486240 -n 0 -e 0.997888
N -t 4.486240 -n 4 -e 0.998752
N -t 4.486240 -n 2 -e 0.998118
d -t 4.486688033 -Hs 2 -Hd -1 -Ni 2 -Nx 30.00 -Ny 33.66 -Nz 0.00 -Ne 0.998118 -Nl MAC -Nw APS -Ma 0 -Md ffffffff -Ms 3 -Mt 0 
s -t 4.500960000 -Hs 5 -Hd -1 -Ni 5 -Nx 20.01 -Ny 16.33 -Nz 0.00 -Ne 0.999021 -Nl MAC -Nw --- -Ma 0 -Md ffffffff -Ms 5 -Mt 0 
N -t 4.500960 -n 0 -e 0.997754
N -t 4.500960 -n 6 -e 0.998714
N -t 4.500960 -n 4 -e 0.998618
r -t 4.501408033 -Hs 0 -Hd -1 -Ni 0 -Nx 25.00 -Ny 25.00 -Nz 0.00 -Ne 0.997754 -Nl MAC -Nw --- -Ma 0 -Md ffffffff -Ms 5 -Mt 0 
r -t 4.501408033 -Hs 6 -Hd -1 -Ni 6 -Nx 30.02 -Ny 16.35 -Nz 0.00 -Ne 0.998714 -Nl MAC -Nw --- -Ma 0 -Md ffffffff -Ms 5 -Mt 0 
d -t 4.501408033 -Hs 4 -Hd -1 -Ni 4 -Nx 15.00 -Ny 24.99 -Nz 0.00 -Ne 0.998618 -Nl MAC -Nw APS -Ma 0 -Md ffffffff -Ms 5 -Mt 0 
s -t 4.965632000 -Hs 0 -Hd -1 -Ni 0 -Nx 25.00 -Ny 25.00 -Nz 0.00 -Ne 0.997754 -Nl MAC -Nw --- -Ma 0 -Md ffffffff -Ms 0 -Mt 0 
N -t 4.965632 -n 3 -e 0.998214
N -t 4.965632 -n 6 -e 0.998541
N -t 4.965632 -n 1 -e 0.998118
N -t 4.965632 -n 4 -e 0.998445
N -t 4.965632 -n 2 -e 0.997946
N -t 4.965632 -n 5 -e 0.998714
s -t 5.469920000 -Hs 2 -Hd -1 -Ni 2 -Nx 30.00 -Ny 33.66 -Nz 0.00 -Ne 0.997850 -Nl MAC -Nw --- -Ma 0 -Md ffffffff -Ms 2 -Mt 0 
N -t 5.469920 -n 0 -e 0.997446
N -t 5.469920 -n 3 -e 0.998080
N -t 5.469920 -n 1 -e 0.997984
d -t 5.470368033 -Hs 1 -Hd -1 -Ni 1 -Nx 35.00 -Ny 25.00 -Nz 0.00 -Ne 0.997984 -Nl MAC -Nw APS -Ma 0 -Md ffffffff -Ms 2 -Mt 0 
s -t 5.485920000 -Hs 4 -Hd -1 -Ni 4 -Nx 15.00 -Ny 24.99 -Nz 0.00 -Ne 0.998349 -Nl MAC -Nw --- -Ma 0 -Md ffffffff -Ms 4 -Mt 0 
N -t 5.485920 -n 0 -e 0.997312
N -t 5.485920 -n 3 -e 0.997946
N -t 5.485920 -n 5 -e 0.998579
d -t 5.486368033 -Hs 3 -Hd -1 -Ni 3 -Nx 19.99 -Ny 33.66 -Nz 0.00 -Ne 0.997946 -Nl MAC -Nw APS -Ma 0 -Md ffffffff -Ms 4 -Mt 0 
s -t 5.501280000 -Hs 6 -Hd -1 -Ni 6 -Nx 30.02 -Ny 16.35 -Nz 0.00 -Ne 0.998445 -Nl MAC -Nw --- -Ma 0 -Md ffffffff -Ms 6 -Mt 0 
N -t 5.501280 -n 1 -e 0.997850
N -t 5.501280 -n 0 -e 0.997178
N -t 5.501280 -n 5 -e 0.998445
r -t 5.501728033 -Hs 0 -Hd -1 -Ni 0 -Nx 25.00 -Ny 25.00 -Nz 0.00 -Ne 0.997178 -Nl MAC -Nw --- -Ma 0 -Md ffffffff -Ms 6 -Mt 0 
d -t 5.501728033 -Hs 5 -Hd -1 -Ni 5 -Nx 20.01 -Ny 16.33 -Nz 0.00 -Ne 0.998445 -Nl MAC -Nw APS -Ma 0 -Md ffffffff -Ms 6 -Mt 0 
s -t 5.948672000 -Hs 0 -Hd -1 -Ni 0 -Nx 25.00 -Ny 25.00 -Nz 0.00 -Ne 0.997178 -Nl MAC -Nw --- -Ma 0 -Md ffffffff -Ms 0 -Mt 0 
N -t 5.948672 -n 3 -e 0.997773
N -t 5.948672 -n 6 -e 0.998138
N -t 5.948672 -n 1 -e 0.997677
N -t 5.948672 -n 4 -e 0.998042
N -t 5.948672 -n 2 -e 0.997542
N -t 5.948672 -n 5 -e 0.998272
s -t 6.469600000 -Hs 3 -Hd -1 -Ni 3 -Nx 19.99 -Ny 33.66 -Nz 0.00 -Ne 0.997677 -Nl MAC -Nw --- -Ma 0 -Md ffffffff -Ms 3 -Mt 0 
N -t 6.469600 -n 0 -e 0.996870
N -t 6.469600 -n 4 -e 0.997907
N -t 6.469600 -n 2 -e 0.997408
d -t 6.470048033 -Hs 2 -Hd -1 -Ni 2 -Nx 30.00 -Ny 33.66 -Nz 0.00 -Ne 0.997408 -Nl MAC -Nw APS -Ma 0 -Md ffffffff -Ms 3 -Mt 0 
s -t 6.484960000 -Hs 5 -Hd -1 -Ni 5 -Nx 20.01 -Ny 16.33 -Nz 0.00 -Ne 0.998176 -Nl MAC -Nw --- -Ma 0 -Md ffffffff -Ms 5 -Mt 0 
N -t 6.484960 -n 0 -e 0.996736
N -t 6.484960 -n 6 -e 0.998003
N -t 6.484960 -n 4 -e 0.997773
d -t 6.485408033 -Hs 4 -Hd -1 -Ni 4 -Nx 15.00 -Ny 24.99 -Nz 0.00 -Ne 0.997773 -Nl MAC -Nw APS -Ma 0 -Md ffffffff -Ms 5 -Mt 0 
s -t 6.931712000 -Hs 0 -Hd -1 -Ni 0 -Nx 25.00 -Ny 25.00 -Nz 0.00 -Ne 0.996736 -Nl MAC -Nw --- -Ma 0 -Md ffffffff -Ms 0 -Mt 0 
N -t 6.931712 -n 3 -e 0.997370
N -t 6.931712 -n 6 -e 0.997830
N -t 6.931712 -n 1 -e 0.997504
N -t 6.931712 -n 4 -e 0.997600
N -t 6.931712 -n 2 -e 0.997235
N -t 6.931712 -n 5 -e 0.997869
v 7 eval {set sim_annotation {(at 7.0) ftp traffic from node 0 to node 1}}
s -t 7.002432000 -Hs 0 -Hd -2 -Ni 0 -Nx 25.00 -Ny 25.00 -Nz 0.00 -Ne 0.996371 -Nl MAC -Nw --- -Ma 0 -Md ffffffff -Ms 0 -Mt 800 -Is 0.255 -Id -1.255 -It AODV -Il 55 -If 0 -Ii 0 -Iv 30 -P aodv -Pt 0x2 -Ph 1 -Pb 1 -Pd 1 -Pds 0 -Ps 0 -Pss 4 -Pc REQUEST 
N -t 7.002432 -n 3 -e 0.996784
N -t 7.002432 -n 6 -e 0.997245
N -t 7.002432 -n 1 -e 0.996918
N -t 7.002432 -n 4 -e 0.997014
N -t 7.002432 -n 2 -e 0.996650
N -t 7.002432 -n 5 -e 0.997283
d -t 7.004384033 -Hs 6 -Hd -2 -Ni 6 -Nx 30.02 -Ny 16.35 -Nz 0.00 -Ne 0.997245 -Nl MAC -Nw APS -Ma 0 -Md ffffffff -Ms 0 -Mt 800 -Is 0.255 -Id -1.255 -It AODV -Il 55 -If 0 -Ii 0 -Iv 30 -P aodv -Pt 0x2 -Ph 1 -Pb 1 -Pd 1 -Pds 0 -Ps 0 -Pss 4 -Pc REQUEST 
v 7.2000000000000002 eval {set sim_annotation {(at 7.2) ftp traffic from node 0 to node 3}}
s -t 7.201792000 -Hs 0 -Hd -2 -Ni 0 -Nx 25.00 -Ny 25.00 -Nz 0.00 -Ne 0.995594 -Nl MAC -Nw --- -Ma 0 -Md ffffffff -Ms 0 -Mt 800 -Is 0.255 -Id -1.255 -It AODV -Il 55 -If 0 -Ii 0 -Iv 30 -P aodv -Pt 0x2 -Ph 1 -Pb 2 -Pd 3 -Pds 0 -Ps 0 -Pss 6 -Pc REQUEST 
N -t 7.201792 -n 3 -e 0.996198
N -t 7.201792 -n 6 -e 0.996659
N -t 7.201792 -n 1 -e 0.996333
N -t 7.201792 -n 4 -e 0.996429
N -t 7.201792 -n 2 -e 0.996064
N -t 7.201792 -n 5 -e 0.996698
d -t 7.203744033 -Hs 6 -Hd -2 -Ni 6 -Nx 30.02 -Ny 16.35 -Nz 0.00 -Ne 0.996659 -Nl MAC -Nw APS -Ma 0 -Md ffffffff -Ms 0 -Mt 800 -Is 0.255 -Id -1.255 -It AODV -Il 55 -If 0 -Ii 0 -Iv 30 -P aodv -Pt 0x2 -Ph 1 -Pb 2 -Pd 3 -Pds 0 -Ps 0 -Pss 6 -Pc REQUEST 
v 7.4000000000000004 eval {set sim_annotation {(at 7.4) ftp traffic from node 0 to node 5}}
s -t 7.402112000 -Hs 0 -Hd -2 -Ni 0 -Nx 25.00 -Ny 25.00 -Nz 0.00 -Ne 0.994816 -Nl MAC -Nw --- -Ma 0 -Md ffffffff -Ms 0 -Mt 800 -Is 0.255 -Id -1.255 -It AODV -Il 55 -If 0 -Ii 0 -Iv 30 -P aodv -Pt 0x2 -Ph 1 -Pb 3 -Pd 5 -Pds 0 -Ps 0 -Pss 8 -Pc REQUEST 
N -t 7.402112 -n 3 -e 0.995613
N -t 7.402112 -n 6 -e 0.996074
N -t 7.402112 -n 1 -e 0.995747
N -t 7.402112 -n 4 -e 0.995843
N -t 7.402112 -n 2 -e 0.995478
N -t 7.402112 -n 5 -e 0.996112
d -t 7.404064033 -Hs 6 -Hd -2 -Ni 6 -Nx 30.02 -Ny 16.35 -Nz 0.00 -Ne 0.996074 -Nl MAC -Nw APS -Ma 0 -Md ffffffff -Ms 0 -Mt 800 -Is 0.255 -Id -1.255 -It AODV -Il 55 -If 0 -Ii 0 -Iv 30 -P aodv -Pt 0x2 -Ph 1 -Pb 3 -Pd 5 -Pds 0 -Ps 0 -Pss 8 -Pc REQUEST 
s -t 7.448480000 -Hs 1 -Hd -1 -Ni 1 -Nx 35.00 -Ny 25.00 -Nz 0.00 -Ne 0.995651 -Nl MAC -Nw --- -Ma 0 -Md ffffffff -Ms 1 -Mt 0 
N -t 7.448480 -n 6 -e 0.995939
N -t 7.448480 -n 0 -e 0.994096
N -t 7.448480 -n 2 -e 0.995344
d -t 7.448928033 -Hs 6 -Hd -1 -Ni 6 -Nx 30.02 -Ny 16.35 -Nz 0.00 -Ne 0.995939 -Nl MAC -Nw APS -Ma 0 -Md ffffffff -Ms 1 -Mt 0 
r -t 7.448928033 -Hs 0 -Hd -1 -Ni 0 -Nx 25.00 -Ny 25.00 -Nz 0.00 -Ne 0.994096 -Nl MAC -Nw --- -Ma 0 -Md ffffffff -Ms 1 -Mt 0 
s -t 7.452320000 -Hs 2 -Hd 0 -Ni 2 -Nx 30.00 -Ny 33.66 -Nz 0.00 -Ne 0.995248 -Nl MAC -Nw --- -Ma 0 -Md 0 -Ms 2 -Mt 0 
N -t 7.452320 -n 0 -e 0.993875
N -t 7.452320 -n 3 -e 0.995392
N -t 7.452320 -n 1 -e 0.995296
r -t 7.453056033 -Hs 0 -Hd 0 -Ni 0 -Nx 25.00 -Ny 25.00 -Nz 0.00 -Ne 0.993875 -Nl MAC -Nw --- -Ma 0 -Md 0 -Ms 2 -Mt 0 
s -t 7.453312000 -Hs 0 -Hd 2 -Ni 0 -Nx 25.00 -Ny 25.00 -Nz 0.00 -Ne 0.993875 -Nl MAC -Nw --- -Ma 0 -Md 2 -Ms 0 -Mt 0 
N -t 7.453312 -n 3 -e 0.995286
N -t 7.453312 -n 6 -e 0.995834
N -t 7.453312 -n 1 -e 0.995190
N -t 7.453312 -n 4 -e 0.995738
N -t 7.453312 -n 2 -e 0.994922
N -t 7.453312 -n 5 -e 0.996006
r -t 7.453664033 -Hs 2 -Hd 2 -Ni 2 -Nx 30.00 -Ny 33.66 -Nz 0.00 -Ne 0.994922 -Nl MAC -Nw --- -Ma 0 -Md 2 -Ms 0 -Mt 0 
s -t 7.470560000 -Hs 4 -Hd -1 -Ni 4 -Nx 15.00 -Ny 24.99 -Nz 0.00 -Ne 0.995642 -Nl MAC -Nw --- -Ma 0 -Md ffffffff -Ms 4 -Mt 0 
N -t 7.470560 -n 0 -e 0.993635
N -t 7.470560 -n 3 -e 0.995152
N -t 7.470560 -n 5 -e 0.995872
d -t 7.471008033 -Hs 3 -Hd -1 -Ni 3 -Nx 19.99 -Ny 33.66 -Nz 0.00 -Ne 0.995152 -Nl MAC -Nw APS -Ma 0 -Md ffffffff -Ms 4 -Mt 0 
s -t 7.484000000 -Hs 6 -Hd -1 -Ni 6 -Nx 30.02 -Ny 16.35 -Nz 0.00 -Ne 0.995738 -Nl MAC -Nw --- -Ma 0 -Md ffffffff -Ms 6 -Mt 0 
N -t 7.484000 -n 1 -e 0.995056
N -t 7.484000 -n 0 -e 0.993501
N -t 7.484000 -n 5 -e 0.995738
d -t 7.484448033 -Hs 5 -Hd -1 -Ni 5 -Nx 20.01 -Ny 16.33 -Nz 0.00 -Ne 0.995738 -Nl MAC -Nw APS -Ma 0 -Md ffffffff -Ms 6 -Mt 0 
s -t 7.914752000 -Hs 0 -Hd -1 -Ni 0 -Nx 25.00 -Ny 25.00 -Nz 0.00 -Ne 0.993501 -Nl MAC -Nw --- -Ma 0 -Md ffffffff -Ms 0 -Mt 0 
N -t 7.914752 -n 3 -e 0.994902
N -t 7.914752 -n 6 -e 0.995354
N -t 7.914752 -n 1 -e 0.994806
N -t 7.914752 -n 4 -e 0.995258
N -t 7.914752 -n 2 -e 0.994672
N -t 7.914752 -n 5 -e 0.995488
s -t 7.945184033 -Hs 2 -Hd 0 -Ni 2 -Nx 30.00 -Ny 33.66 -Nz 0.00 -Ne 0.994672 -Nl MAC -Nw --- -Ma 0 -Md 0 -Ms 2 -Mt 0 
N -t 7.945184 -n 0 -e 0.993040
N -t 7.945184 -n 3 -e 0.994691
N -t 7.945184 -n 1 -e 0.994595
r -t 7.945888067 -Hs 0 -Hd 0 -Ni 0 -Nx 25.00 -Ny 25.00 -Nz 0.00 -Ne 0.993040 -Nl MAC -Nw --- -Ma 0 -Md 0 -Ms 2 -Mt 0 
s -t 7.946112000 -Hs 0 -Hd 2 -Ni 0 -Nx 25.00 -Ny 25.00 -Nz 0.00 -Ne 0.993040 -Nl MAC -Nw --- -Ma 0 -Md 2 -Ms 0 -Mt 0 
N -t 7.946112 -n 3 -e 0.994586
N -t 7.946112 -n 6 -e 0.995248
N -t 7.946112 -n 1 -e 0.994490
N -t 7.946112 -n 4 -e 0.995152
N -t 7.946112 -n 2 -e 0.994355
N -t 7.946112 -n 5 -e 0.995382
r -t 7.946464033 -Hs 2 -Hd 2 -Ni 2 -Nx 30.00 -Ny 33.66 -Nz 0.00 -Ne 0.994355 -Nl MAC -Nw --- -Ma 0 -Md 2 -Ms 0 -Mt 0 
s -t 7.946752000 -Hs 0 -Hd 2 -Ni 0 -Nx 25.00 -Ny 25.00 -Nz 0.00 -Ne 0.992934 -Nl MAC -Nw --- -Ma 0 -Md 2 -Ms 0 -Mt 0 
N -t 7.946752 -n 3 -e 0.994288
N -t 7.946752 -n 6 -e 0.994950
N -t 7.946752 -n 1 -e 0.994192
N -t 7.946752 -n 4 -e 0.994854
N -t 7.946752 -n 2 -e 0.994058
N -t 7.946752 -n 5 -e 0.995085
r -t 7.947744033 -Hs 2 -Hd 2 -Ni 2 -Nx 30.00 -Ny 33.66 -Nz 0.00 -Ne 0.994058 -Nl MAC -Nw --- -Ma 0 -Md 2 -Ms 0 -Mt 0 
s -t 7.947936033 -Hs 2 -Hd 0 -Ni 2 -Nx 30.00 -Ny 33.66 -Nz 0.00 -Ne 0.994058 -Nl MAC -Nw --- -Ma 0 -Md 0 -Ms 2 -Mt 0 
N -t 7.947936 -n 0 -e 0.992531
N -t 7.947936 -n 3 -e 0.994182
N -t 7.947936 -n 1 -e 0.994086
r -t 7.948288067 -Hs 0 -Hd 0 -Ni 0 -Nx 25.00 -Ny 25.00 -Nz 0.00 -Ne 0.992531 -Nl MAC -Nw --- -Ma 0 -Md 0 -Ms 2 -Mt 0 
s -t 8.454240000 -Hs 3 -Hd 0 -Ni 3 -Nx 19.99 -Ny 33.66 -Nz 0.00 -Ne 0.994086 -Nl MAC -Nw --- -Ma 0 -Md 0 -Ms 3 -Mt 0 
N -t 8.454240 -n 0 -e 0.992310
N -t 8.454240 -n 4 -e 0.994634
N -t 8.454240 -n 2 -e 0.993731
r -t 8.454976033 -Hs 0 -Hd 0 -Ni 0 -Nx 25.00 -Ny 25.00 -Nz 0.00 -Ne 0.992310 -Nl MAC -Nw --- -Ma 0 -Md 0 -Ms 3 -Mt 0 
s -t 8.455232000 -Hs 0 -Hd 3 -Ni 0 -Nx 25.00 -Ny 25.00 -Nz 0.00 -Ne 0.992310 -Nl MAC -Nw --- -Ma 0 -Md 3 -Ms 0 -Mt 0 
N -t 8.455232 -n 3 -e 0.993760
N -t 8.455232 -n 6 -e 0.994845
N -t 8.455232 -n 1 -e 0.993981
N -t 8.455232 -n 4 -e 0.994528
N -t 8.455232 -n 2 -e 0.993626
N -t 8.455232 -n 5 -e 0.994979
r -t 8.455584033 -Hs 3 -Hd 3 -Ni 3 -Nx 19.99 -Ny 33.66 -Nz 0.00 -Ne 0.993760 -Nl MAC -Nw --- -Ma 0 -Md 3 -Ms 0 -Mt 0 
s -t 8.468000000 -Hs 5 -Hd -1 -Ni 5 -Nx 20.01 -Ny 16.33 -Nz 0.00 -Ne 0.994883 -Nl MAC -Nw --- -Ma 0 -Md ffffffff -Ms 5 -Mt 0 
N -t 8.468000 -n 0 -e 0.992070
N -t 8.468000 -n 6 -e 0.994710
N -t 8.468000 -n 4 -e 0.994394
d -t 8.468448033 -Hs 4 -Hd -1 -Ni 4 -Nx 15.00 -Ny 24.99 -Nz 0.00 -Ne 0.994394 -Nl MAC -Nw APS -Ma 0 -Md ffffffff -Ms 5 -Mt 0 
s -t 8.897792000 -Hs 0 -Hd -1 -Ni 0 -Nx 25.00 -Ny 25.00 -Nz 0.00 -Ne 0.992070 -Nl MAC -Nw --- -Ma 0 -Md ffffffff -Ms 0 -Mt 0 
N -t 8.897792 -n 3 -e 0.993510
N -t 8.897792 -n 6 -e 0.994461
N -t 8.897792 -n 1 -e 0.993731
N -t 8.897792 -n 4 -e 0.994144
N -t 8.897792 -n 2 -e 0.993376
N -t 8.897792 -n 5 -e 0.994499
r -t 8.898624033 -Hs 2 -Hd -1 -Ni 2 -Nx 30.00 -Ny 33.66 -Nz 0.00 -Ne 0.993376 -Nl MAC -Nw --- -Ma 0 -Md ffffffff -Ms 0 -Mt 0 
s -t 8.947104033 -Hs 3 -Hd 0 -Ni 3 -Nx 19.99 -Ny 33.66 -Nz 0.00 -Ne 0.993510 -Nl MAC -Nw --- -Ma 0 -Md 0 -Ms 3 -Mt 0 
N -t 8.947104 -n 0 -e 0.991610
N -t 8.947104 -n 4 -e 0.993933
N -t 8.947104 -n 2 -e 0.993165
r -t 8.947808067 -Hs 0 -Hd 0 -Ni 0 -Nx 25.00 -Ny 25.00 -Nz 0.00 -Ne 0.991610 -Nl MAC -Nw --- -Ma 0 -Md 0 -Ms 3 -Mt 0 
s -t 8.948032000 -Hs 0 -Hd 3 -Ni 0 -Nx 25.00 -Ny 25.00 -Nz 0.00 -Ne 0.991610 -Nl MAC -Nw --- -Ma 0 -Md 3 -Ms 0 -Mt 0 
N -t 8.948032 -n 3 -e 0.993194
N -t 8.948032 -n 6 -e 0.994355
N -t 8.948032 -n 1 -e 0.993626
N -t 8.948032 -n 4 -e 0.993827
N -t 8.948032 -n 2 -e 0.993059
N -t 8.948032 -n 5 -e 0.994394
r -t 8.948384033 -Hs 3 -Hd 3 -Ni 3 -Nx 19.99 -Ny 33.66 -Nz 0.00 -Ne 0.993194 -Nl MAC -Nw --- -Ma 0 -Md 3 -Ms 0 -Mt 0 
s -t 8.948672000 -Hs 0 -Hd 3 -Ni 0 -Nx 25.00 -Ny 25.00 -Nz 0.00 -Ne 0.991504 -Nl MAC -Nw --- -Ma 0 -Md 3 -Ms 0 -Mt 0 
N -t 8.948672 -n 3 -e 0.992896
N -t 8.948672 -n 6 -e 0.994058
N -t 8.948672 -n 1 -e 0.993328
N -t 8.948672 -n 4 -e 0.993530
N -t 8.948672 -n 2 -e 0.992762
N -t 8.948672 -n 5 -e 0.994096
r -t 8.949664033 -Hs 3 -Hd 3 -Ni 3 -Nx 19.99 -Ny 33.66 -Nz 0.00 -Ne 0.992896 -Nl MAC -Nw --- -Ma 0 -Md 3 -Ms 0 -Mt 0 
s -t 8.949856033 -Hs 3 -Hd 0 -Ni 3 -Nx 19.99 -Ny 33.66 -Nz 0.00 -Ne 0.992896 -Nl MAC -Nw --- -Ma 0 -Md 0 -Ms 3 -Mt 0 
N -t 8.949856 -n 0 -e 0.991101
N -t 8.949856 -n 4 -e 0.993424
N -t 8.949856 -n 2 -e 0.992656
r -t 8.950208067 -Hs 0 -Hd 0 -Ni 0 -Nx 25.00 -Ny 25.00 -Nz 0.00 -Ne 0.991101 -Nl MAC -Nw --- -Ma 0 -Md 0 -Ms 3 -Mt 0 
s -t 9.003072000 -Hs 0 -Hd -2 -Ni 0 -Nx 25.00 -Ny 25.00 -Nz 0.00 -Ne 0.990909 -Nl MAC -Nw --- -Ma 0 -Md ffffffff -Ms 0 -Mt 800 -Is 0.255 -Id -1.255 -It AODV -Il 55 -If 0 -Ii 0 -Iv 30 -P aodv -Pt 0x2 -Ph 1 -Pb 4 -Pd 3 -Pds 0 -Ps 0 -Pss 10 -Pc REQUEST 
N -t 9.003072 -n 3 -e 0.992205
N -t 9.003072 -n 6 -e 0.993472
N -t 9.003072 -n 1 -e 0.992742
N -t 9.003072 -n 4 -e 0.992838
N -t 9.003072 -n 2 -e 0.992070
N -t 9.003072 -n 5 -e 0.993510
d -t 9.005024033 -Hs 1 -Hd -2 -Ni 1 -Nx 35.00 -Ny 25.00 -Nz 0.00 -Ne 0.992742 -Nl MAC -Nw APS -Ma 0 -Md ffffffff -Ms 0 -Mt 800 -Is 0.255 -Id -1.255 -It AODV -Il 55 -If 0 -Ii 0 -Iv 30 -P aodv -Pt 0x2 -Ph 1 -Pb 4 -Pd 3 -Pds 0 -Ps 0 -Pss 10 -Pc REQUEST 
r -t 9.005664033 -Hs 3 -Hd -2 -Ni 3 -Nx 19.99 -Ny 33.66 -Nz 0.00 -Ne 0.992205 -Nl MAC -Nw --- -Ma 0 -Md ffffffff -Ms 0 -Mt 800 -Is 0.255 -Id -1.255 -It AODV -Il 48 -If 0 -Ii 0 -Iv 30 -P aodv -Pt 0x2 -Ph 1 -Pb 4 -Pd 3 -Pds 0 -Ps 0 -Pss 10 -Pc REQUEST 
r -t 9.005664033 -Hs 2 -Hd -2 -Ni 2 -Nx 30.00 -Ny 33.66 -Nz 0.00 -Ne 0.992070 -Nl MAC -Nw --- -Ma 0 -Md ffffffff -Ms 0 -Mt 800 -Is 0.255 -Id -1.255 -It AODV -Il 48 -If 0 -Ii 0 -Iv 30 -P aodv -Pt 0x2 -Ph 1 -Pb 4 -Pd 3 -Pds 0 -Ps 0 -Pss 10 -Pc REQUEST 
s -t 9.006272000 -Hs 0 -Hd -2 -Ni 0 -Nx 25.00 -Ny 25.00 -Nz 0.00 -Ne 0.990131 -Nl MAC -Nw --- -Ma 0 -Md ffffffff -Ms 0 -Mt 800 -Is 0.255 -Id -1.255 -It AODV -Il 55 -If 0 -Ii 0 -Iv 30 -P aodv -Pt 0x2 -Ph 1 -Pb 5 -Pd 1 -Pds 0 -Ps 0 -Pss 12 -Pc REQUEST 
N -t 9.006272 -n 3 -e 0.991619
N -t 9.006272 -n 6 -e 0.992886
N -t 9.006272 -n 1 -e 0.992157
N -t 9.006272 -n 4 -e 0.992253
N -t 9.006272 -n 2 -e 0.991485
N -t 9.006272 -n 5 -e 0.992925
d -t 9.008224033 -Hs 1 -Hd -2 -Ni 1 -Nx 35.00 -Ny 25.00 -Nz 0.00 -Ne 0.992157 -Nl MAC -Nw APS -Ma 0 -Md ffffffff -Ms 0 -Mt 800 -Is 0.255 -Id -1.255 -It AODV -Il 55 -If 0 -Ii 0 -Iv 30 -P aodv -Pt 0x2 -Ph 1 -Pb 5 -Pd 1 -Pds 0 -Ps 0 -Pss 12 -Pc REQUEST 
r -t 9.008864033 -Hs 3 -Hd -2 -Ni 3 -Nx 19.99 -Ny 33.66 -Nz 0.00 -Ne 0.991427 -Nl MAC -Nw --- -Ma 0 -Md ffffffff -Ms 0 -Mt 800 -Is 0.255 -Id -1.255 -It AODV -Il 48 -If 0 -Ii 0 -Iv 30 -P aodv -Pt 0x2 -Ph 1 -Pb 5 -Pd 1 -Pds 0 -Ps 0 -Pss 12 -Pc REQUEST 
r -t 9.008864033 -Hs 2 -Hd -2 -Ni 2 -Nx 30.00 -Ny 33.66 -Nz 0.00 -Ne 0.991485 -Nl MAC -Nw --- -Ma 0 -Md ffffffff -Ms 0 -Mt 800 -Is 0.255 -Id -1.255 -It AODV -Il 48 -If 0 -Ii 0 -Iv 30 -P aodv -Pt 0x2 -Ph 1 -Pb 5 -Pd 1 -Pds 0 -Ps 0 -Pss 12 -Pc REQUEST 
s -t 9.009982033 -Hs 3 -Hd -2 -Ni 3 -Nx 19.99 -Ny 33.66 -Nz 0.00 -Ne 0.991331 -Nl MAC -Nw --- -Ma 0 -Md ffffffff -Ms 3 -Mt 806 -P arp -Po REQUEST -Pms 3 -Ps 3 -Pmd 0 -Pd 0 
N -t 9.009982 -n 0 -e 0.989152
N -t 9.009982 -n 4 -e 0.991859
N -t 9.009982 -n 2 -e 0.991091
r -t 9.011934067 -Hs 0 -Hd -2 -Ni 0 -Nx 25.00 -Ny 25.00 -Nz 0.00 -Ne 0.989152 -Nl MAC -Nw --- -Ma 0 -Md ffffffff -Ms 3 -Mt 806 -P arp -Po REQUEST -Pms 3 -Ps 3 -Pmd 0 -Pd 0 
r -t 9.011934067 -Hs 2 -Hd -2 -Ni 2 -Nx 30.00 -Ny 33.66 -Nz 0.00 -Ne 0.991091 -Nl MAC -Nw --- -Ma 0 -Md ffffffff -Ms 3 -Mt 806 -P arp -Po REQUEST -Pms 3 -Ps 3 -Pmd 0 -Pd 0 
s -t 9.012672033 -Hs 2 -Hd -2 -Ni 2 -Nx 30.00 -Ny 33.66 -Nz 0.00 -Ne 0.990899 -Nl MAC -Nw --- -Ma 0 -Md ffffffff -Ms 2 -Mt 800 -Is 2.255 -Id -1.255 -It AODV -Il 55 -If 0 -Ii 0 -Iv 29 -P aodv -Pt 0x2 -Ph 2 -Pb 5 -Pd 1 -Pds 0 -Ps 0 -Pss 12 -Pc REQUEST 
N -t 9.012672 -n 0 -e 0.988566
N -t 9.012672 -n 3 -e 0.990352
N -t 9.012672 -n 1 -e 0.991571
d -t 9.014624067 -Hs 1 -Hd -2 -Ni 1 -Nx 35.00 -Ny 25.00 -Nz 0.00 -Ne 0.991571 -Nl MAC -Nw APS -Ma 0 -Md ffffffff -Ms 2 -Mt 800 -Is 2.255 -Id -1.255 -It AODV -Il 55 -If 0 -Ii 0 -Iv 29 -P aodv -Pt 0x2 -Ph 2 -Pb 5 -Pd 1 -Pds 0 -Ps 0 -Pss 12 -Pc REQUEST 
r -t 9.015264067 -Hs 0 -Hd -2 -Ni 0 -Nx 25.00 -Ny 25.00 -Nz 0.00 -Ne 0.988566 -Nl MAC -Nw --- -Ma 0 -Md ffffffff -Ms 2 -Mt 800 -Is 2.255 -Id -1.255 -It AODV -Il 48 -If 0 -Ii 0 -Iv 29 -P aodv -Pt 0x2 -Ph 2 -Pb 5 -Pd 1 -Pds 0 -Ps 0 -Pss 12 -Pc REQUEST 
r -t 9.015264067 -Hs 3 -Hd -2 -Ni 3 -Nx 19.99 -Ny 33.66 -Nz 0.00 -Ne 0.990352 -Nl MAC -Nw --- -Ma 0 -Md ffffffff -Ms 2 -Mt 800 -Is 2.255 -Id -1.255 -It AODV -Il 48 -If 0 -Ii 0 -Iv 29 -P aodv -Pt 0x2 -Ph 2 -Pb 5 -Pd 1 -Pds 0 -Ps 0 -Pss 12 -Pc REQUEST 
s -t 9.016512033 -Hs 2 -Hd -2 -Ni 2 -Nx 30.00 -Ny 33.66 -Nz 0.00 -Ne 0.990122 -Nl MAC -Nw --- -Ma 0 -Md ffffffff -Ms 2 -Mt 800 -Is 2.255 -Id -1.255 -It AODV -Il 55 -If 0 -Ii 0 -Iv 29 -P aodv -Pt 0x2 -Ph 2 -Pb 4 -Pd 3 -Pds 0 -Ps 0 -Pss 10 -Pc REQUEST 
N -t 9.016512 -n 0 -e 0.987981
N -t 9.016512 -n 3 -e 0.989670
N -t 9.016512 -n 1 -e 0.990986
s -t 9.016560272 -Hs 3 -Hd -2 -Ni 3 -Nx 19.99 -Ny 33.66 -Nz 0.00 -Ne 0.989670 -Nl MAC -Nw --- -Ma 0 -Md ffffffff -Ms 3 -Mt 800 -Is 3.255 -Id -1.255 -It AODV -Il 55 -If 0 -Ii 0 -Iv 29 -P aodv -Pt 0x2 -Ph 2 -Pb 5 -Pd 1 -Pds 0 -Ps 0 -Pss 12 -Pc REQUEST 
N -t 9.016560 -n 0 -e 0.987966
N -t 9.016560 -n 4 -e 0.991274
N -t 9.016560 -n 2 -e 0.989522
d -t 9.018464067 -Hs 1 -Hd -2 -Ni 1 -Nx 35.00 -Ny 25.00 -Nz 0.00 -Ne 0.990986 -Nl MAC -Nw APS -Ma 0 -Md ffffffff -Ms 2 -Mt 800 -Is 2.255 -Id -1.255 -It AODV -Il 55 -If 0 -Ii 0 -Iv 29 -P aodv -Pt 0x2 -Ph 2 -Pb 4 -Pd 3 -Pds 0 -Ps 0 -Pss 10 -Pc REQUEST 
d -t 9.018512306 -Hs 0 -Hd -2 -Ni 0 -Nx 25.00 -Ny 25.00 -Nz 0.00 -Ne 0.987966 -Nl MAC -Nw LQI -Ma 0 -Md ffffffff -Ms 3 -Mt 800 -Is 3.255 -Id -1.255 -It AODV -Il 55 -If 0 -Ii 0 -Iv 29 -P aodv -Pt 0x2 -Ph 2 -Pb 5 -Pd 1 -Pds 0 -Ps 0 -Pss 12 -Pc REQUEST 
s -t 9.432800000 -Hs 1 -Hd -1 -Ni 1 -Nx 35.00 -Ny 25.00 -Nz 0.00 -Ne 0.990890 -Nl MAC -Nw --- -Ma 0 -Md ffffffff -Ms 1 -Mt 0 
N -t 9.432800 -n 6 -e 0.992752
N -t 9.432800 -n 0 -e 0.987832
N -t 9.432800 -n 2 -e 0.989387
d -t 9.433248033 -Hs 6 -Hd -1 -Ni 6 -Nx 30.02 -Ny 16.35 -Nz 0.00 -Ne 0.992752 -Nl MAC -Nw APS -Ma 0 -Md ffffffff -Ms 1 -Mt 0 
s -t 9.454560000 -Hs 4 -Hd 0 -Ni 4 -Nx 15.00 -Ny 24.99 -Nz 0.00 -Ne 0.991178 -Nl MAC -Nw --- -Ma 0 -Md 0 -Ms 4 -Mt 0 
N -t 9.454560 -n 0 -e 0.987611
N -t 9.454560 -n 3 -e 0.989435
N -t 9.454560 -n 5 -e 0.992704
r -t 9.455296033 -Hs 0 -Hd 0 -Ni 0 -Nx 25.00 -Ny 25.00 -Nz 0.00 -Ne 0.987611 -Nl MAC -Nw --- -Ma 0 -Md 0 -Ms 4 -Mt 0 
s -t 9.455552000 -Hs 0 -Hd 4 -Ni 0 -Nx 25.00 -Ny 25.00 -Nz 0.00 -Ne 0.987611 -Nl MAC -Nw --- -Ma 0 -Md 4 -Ms 0 -Mt 0 
N -t 9.455552 -n 3 -e 0.989330
N -t 9.455552 -n 6 -e 0.992646
N -t 9.455552 -n 1 -e 0.990650
N -t 9.455552 -n 4 -e 0.990851
N -t 9.455552 -n 2 -e 0.989282
N -t 9.455552 -n 5 -e 0.992598
r -t 9.455904033 -Hs 4 -Hd 4 -Ni 4 -Nx 15.00 -Ny 24.99 -Nz 0.00 -Ne 0.990851 -Nl MAC -Nw --- -Ma 0 -Md 4 -Ms 0 -Mt 0 
s -t 9.468640000 -Hs 6 -Hd -1 -Ni 6 -Nx 30.02 -Ny 16.35 -Nz 0.00 -Ne 0.992550 -Nl MAC -Nw --- -Ma 0 -Md ffffffff -Ms 6 -Mt 0 
N -t 9.468640 -n 1 -e 0.990515
N -t 9.468640 -n 0 -e 0.987371
N -t 9.468640 -n 5 -e 0.992464
d -t 9.469088033 -Hs 5 -Hd -1 -Ni 5 -Nx 20.01 -Ny 16.33 -Nz 0.00 -Ne 0.992464 -Nl MAC -Nw APS -Ma 0 -Md ffffffff -Ms 6 -Mt 0 
s -t 9.880832000 -Hs 0 -Hd -1 -Ni 0 -Nx 25.00 -Ny 25.00 -Nz 0.00 -Ne 0.987371 -Nl MAC -Nw --- -Ma 0 -Md ffffffff -Ms 0 -Mt 0 
N -t 9.880832 -n 3 -e 0.989080
N -t 9.880832 -n 6 -e 0.992166
N -t 9.880832 -n 1 -e 0.990266
N -t 9.880832 -n 4 -e 0.990602
N -t 9.880832 -n 2 -e 0.989032
N -t 9.880832 -n 5 -e 0.992214
r -t 9.881664033 -Hs 3 -Hd -1 -Ni 3 -Nx 19.99 -Ny 33.66 -Nz 0.00 -Ne 0.989080 -Nl MAC -Nw --- -Ma 0 -Md ffffffff -Ms 0 -Mt 0 
r -t 9.881664033 -Hs 2 -Hd -1 -Ni 2 -Nx 30.00 -Ny 33.66 -Nz 0.00 -Ne 0.989032 -Nl MAC -Nw --- -Ma 0 -Md ffffffff -Ms 0 -Mt 0 
s -t 9.947424033 -Hs 4 -Hd 0 -Ni 4 -Nx 15.00 -Ny 24.99 -Nz 0.00 -Ne 0.990602 -Nl MAC -Nw --- -Ma 0 -Md 0 -Ms 4 -Mt 0 
N -t 9.947424 -n 0 -e 0.986910
N -t 9.947424 -n 3 -e 0.988869
N -t 9.947424 -n 5 -e 0.992003
r -t 9.948128067 -Hs 0 -Hd 0 -Ni 0 -Nx 25.00 -Ny 25.00 -Nz 0.00 -Ne 0.986910 -Nl MAC -Nw --- -Ma 0 -Md 0 -Ms 4 -Mt 0 
s -t 9.948352000 -Hs 0 -Hd 4 -Ni 0 -Nx 25.00 -Ny 25.00 -Nz 0.00 -Ne 0.986910 -Nl MAC -Nw --- -Ma 0 -Md 4 -Ms 0 -Mt 0 
N -t 9.948352 -n 3 -e 0.988763
N -t 9.948352 -n 6 -e 0.992061
N -t 9.948352 -n 1 -e 0.990160
N -t 9.948352 -n 4 -e 0.990285
N -t 9.948352 -n 2 -e 0.988926
N -t 9.948352 -n 5 -e 0.991898
r -t 9.948704033 -Hs 4 -Hd 4 -Ni 4 -Nx 15.00 -Ny 24.99 -Nz 0.00 -Ne 0.990285 -Nl MAC -Nw --- -Ma 0 -Md 4 -Ms 0 -Mt 0 
s -t 9.948992000 -Hs 0 -Hd 4 -Ni 0 -Nx 25.00 -Ny 25.00 -Nz 0.00 -Ne 0.986805 -Nl MAC -Nw --- -Ma 0 -Md 4 -Ms 0 -Mt 0 
N -t 9.948992 -n 3 -e 0.988466
N -t 9.948992 -n 6 -e 0.991763
N -t 9.948992 -n 1 -e 0.989862
N -t 9.948992 -n 4 -e 0.989987
N -t 9.948992 -n 2 -e 0.988629
N -t 9.948992 -n 5 -e 0.991600
r -t 9.949984033 -Hs 4 -Hd 4 -Ni 4 -Nx 15.00 -Ny 24.99 -Nz 0.00 -Ne 0.989987 -Nl MAC -Nw --- -Ma 0 -Md 4 -Ms 0 -Mt 0 
s -t 9.950176033 -Hs 4 -Hd 0 -Ni 4 -Nx 15.00 -Ny 24.99 -Nz 0.00 -Ne 0.989987 -Nl MAC -Nw --- -Ma 0 -Md 0 -Ms 4 -Mt 0 
N -t 9.950176 -n 0 -e 0.986402
N -t 9.950176 -n 3 -e 0.988360
N -t 9.950176 -n 5 -e 0.991494
r -t 9.950528067 -Hs 0 -Hd 0 -Ni 0 -Nx 25.00 -Ny 25.00 -Nz 0.00 -Ne 0.986402 -Nl MAC -Nw --- -Ma 0 -Md 0 -Ms 4 -Mt 0 
s -t 10.452320000 -Hs 5 -Hd 0 -Ni 5 -Nx 20.01 -Ny 16.33 -Nz 0.00 -Ne 0.991398 -Nl MAC -Nw --- -Ma 0 -Md 0 -Ms 5 -Mt 0 
N -t 10.452320 -n 0 -e 0.986181
N -t 10.452320 -n 6 -e 0.991542
N -t 10.452320 -n 4 -e 0.989661
r -t 10.453056033 -Hs 0 -Hd 0 -Ni 0 -Nx 25.00 -Ny 25.00 -Nz 0.00 -Ne 0.986181 -Nl MAC -Nw --- -Ma 0 -Md 0 -Ms 5 -Mt 0 
s -t 10.453312000 -Hs 0 -Hd 5 -Ni 0 -Nx 25.00 -Ny 25.00 -Nz 0.00 -Ne 0.986181 -Nl MAC -Nw --- -Ma 0 -Md 5 -Ms 0 -Mt 0 
N -t 10.453312 -n 3 -e 0.988254
N -t 10.453312 -n 6 -e 0.991437
N -t 10.453312 -n 1 -e 0.989757
N -t 10.453312 -n 4 -e 0.989555
N -t 10.453312 -n 2 -e 0.988523
N -t 10.453312 -n 5 -e 0.991072
r -t 10.453664033 -Hs 5 -Hd 5 -Ni 5 -Nx 20.01 -Ny 16.33 -Nz 0.00 -Ne 0.991072 -Nl MAC -Nw --- -Ma 0 -Md 5 -Ms 0 -Mt 0 
s -t 10.863872000 -Hs 0 -Hd -1 -Ni 0 -Nx 25.00 -Ny 25.00 -Nz 0.00 -Ne 0.986075 -Nl MAC -Nw --- -Ma 0 -Md ffffffff -Ms 0 -Mt 0 
N -t 10.863872 -n 3 -e 0.988005
N -t 10.863872 -n 6 -e 0.991187
N -t 10.863872 -n 1 -e 0.989507
N -t 10.863872 -n 4 -e 0.989306
N -t 10.863872 -n 2 -e 0.988274
N -t 10.863872 -n 5 -e 0.990822
r -t 10.864704033 -Hs 3 -Hd -1 -Ni 3 -Nx 19.99 -Ny 33.66 -Nz 0.00 -Ne 0.988005 -Nl MAC -Nw --- -Ma 0 -Md ffffffff -Ms 0 -Mt 0 
r -t 10.864704033 -Hs 4 -Hd -1 -Ni 4 -Nx 15.00 -Ny 24.99 -Nz 0.00 -Ne 0.989306 -Nl MAC -Nw --- -Ma 0 -Md ffffffff -Ms 0 -Mt 0 
r -t 10.864704033 -Hs 2 -Hd -1 -Ni 2 -Nx 30.00 -Ny 33.66 -Nz 0.00 -Ne 0.988274 -Nl MAC -Nw --- -Ma 0 -Md ffffffff -Ms 0 -Mt 0 
s -t 10.945184033 -Hs 5 -Hd 0 -Ni 5 -Nx 20.01 -Ny 16.33 -Nz 0.00 -Ne 0.990822 -Nl MAC -Nw --- -Ma 0 -Md 0 -Ms 5 -Mt 0 
N -t 10.945184 -n 0 -e 0.985614
N -t 10.945184 -n 6 -e 0.990976
N -t 10.945184 -n 4 -e 0.989094
r -t 10.945888067 -Hs 0 -Hd 0 -Ni 0 -Nx 25.00 -Ny 25.00 -Nz 0.00 -Ne 0.985614 -Nl MAC -Nw --- -Ma 0 -Md 0 -Ms 5 -Mt 0 
s -t 10.946112000 -Hs 0 -Hd 5 -Ni 0 -Nx 25.00 -Ny 25.00 -Nz 0.00 -Ne 0.985614 -Nl MAC -Nw --- -Ma 0 -Md 5 -Ms 0 -Mt 0 
N -t 10.946112 -n 3 -e 0.987899
N -t 10.946112 -n 6 -e 0.990870
N -t 10.946112 -n 1 -e 0.989402
N -t 10.946112 -n 4 -e 0.988989
N -t 10.946112 -n 2 -e 0.988168
N -t 10.946112 -n 5 -e 0.990506
r -t 10.946464033 -Hs 5 -Hd 5 -Ni 5 -Nx 20.01 -Ny 16.33 -Nz 0.00 -Ne 0.990506 -Nl MAC -Nw --- -Ma 0 -Md 5 -Ms 0 -Mt 0 
s -t 10.946752000 -Hs 0 -Hd 5 -Ni 0 -Nx 25.00 -Ny 25.00 -Nz 0.00 -Ne 0.985509 -Nl MAC -Nw --- -Ma 0 -Md 5 -Ms 0 -Mt 0 
N -t 10.946752 -n 3 -e 0.987602
N -t 10.946752 -n 6 -e 0.990573
N -t 10.946752 -n 1 -e 0.989104
N -t 10.946752 -n 4 -e 0.988691
N -t 10.946752 -n 2 -e 0.987870
N -t 10.946752 -n 5 -e 0.990208
r -t 10.947744033 -Hs 5 -Hd 5 -Ni 5 -Nx 20.01 -Ny 16.33 -Nz 0.00 -Ne 0.990208 -Nl MAC -Nw --- -Ma 0 -Md 5 -Ms 0 -Mt 0 
s -t 10.947936033 -Hs 5 -Hd 0 -Ni 5 -Nx 20.01 -Ny 16.33 -Nz 0.00 -Ne 0.990208 -Nl MAC -Nw --- -Ma 0 -Md 0 -Ms 5 -Mt 0 
N -t 10.947936 -n 0 -e 0.985106
N -t 10.947936 -n 6 -e 0.990467
N -t 10.947936 -n 4 -e 0.988586
r -t 10.948288067 -Hs 0 -Hd 0 -Ni 0 -Nx 25.00 -Ny 25.00 -Nz 0.00 -Ne 0.985106 -Nl MAC -Nw --- -Ma 0 -Md 0 -Ms 5 -Mt 0 
s -t 11.415520000 -Hs 1 -Hd -1 -Ni 1 -Nx 35.00 -Ny 25.00 -Nz 0.00 -Ne 0.989008 -Nl MAC -Nw --- -Ma 0 -Md ffffffff -Ms 1 -Mt 0 
N -t 11.415520 -n 6 -e 0.990333