# nam4wpan #
c -t * -i 32 -n tomato
c -t * -i 33 -n green
c -t * -i 34 -n navy
c -t * -i 35 -n blue
c -t * -i 36 -n blue
c -t * -i 37 -n green4
c -t * -i 38 -n green4
c -t * -i 39 -n cyan4
c -t * -i 40 -n cyan4
n -t * -s 0  -x 25 -y 25 -Z 0 -z 2  -v circle -c green
n -t * -s 1  -x 35 -y 25 -Z 0 -z 2  -v circle -c green
n -t * -s 2  -x 29.996300000000002 -y 33.662399999999998 -Z 0 -z 2  -v circle -c green
n -t * -s 3  -x 19.992699999999999 -y 33.655999999999999 -Z 0 -z 2  -v circle -c green
n -t * -s 4  -x 15 -y 24.987400000000001 -Z 0 -z 2  -v circle -c green
n -t * -s 5  -x 20.014600000000002 -y 16.331299999999999 -Z 0 -z 2  -v circle -c green
n -t * -s 6  -x 30.0182 -y 16.350300000000001 -Z 0 -z 2  -v circle -c green
V -t * -v 1.0a5 -a 0
W -t * -x 50 -y 50
A -t * -n 1 -p 0 -o 0xffffffff -c 31 -a 1
A -t * -h 1 -m 2147483647 -s 0
v -t 0.000000000 -e set_rate_ext 3ms 1
n -t 0.000000000 -s 0 -S DLABEL -l "PAN Coor" -L ""
+ -t 0.000640000 -s 0 -d -1 -p CM7 -e 8 -c 2 -a 34 -i 0 -k MAC 
- -t 0.000640000 -s 0 -d -1 -p CM7 -e 8 -c 2 -a 34 -i 0 -k MAC
h -t 0.000640000 -s 0 -d -1 -p CM7 -e 8 -c 2 -a 34 -i 0 -k MAC -R 15.00 -D 0.00
r -t 0.001088033 -s 3 -d -1 -p CM7 -e 8 -c 2 -a 34 -i 0 -k MAC
r -t 0.001088033 -s 6 -d -1 -p CM7 -e 8 -c 2 -a 34 -i 0 -k MAC
r -t 0.001088033 -s 1 -d -1 -p CM7 -e 8 -c 2 -a 34 -i 0 -k MAC
r -t 0.001088033 -s 4 -d -1 -p CM7 -e 8 -c 2 -a 34 -i 0 -k MAC
r -t 0.001088033 -s 2 -d -1 -p CM7 -e 8 -c 2 -a 34 -i 0 -k MAC
r -t 0.001088033 -s 5 -d -1 -p CM7 -e 8 -c 2 -a 34 -i 0 -k MAC
+ -t 0.500320000 -s 1 -d -1 -p CM7 -e 8 -c 2 -a 0 -i 0 -k MAC 
- -t 0.500320000 -s 1 -d -1 -p CM7 -e 8 -c 2 -a 0 -i 0 -k MAC
h -t 0.500320000 -s 1 -d -1 -p CM7 -e 8 -c 2 -a 0 -i 0 -k MAC -R 15.00 -D 0.00
r -t 0.500768033 -s 6 -d -1 -p CM7 -e 8 -c 2 -a 0 -i 0 -k MAC
d -t 0.500768033 -s 0 -d -1 -p CM7 -e 8 -c 2 -a 0 -i 0 -k MAC
r -t 0.500768033 -s 2 -d -1 -p CM7 -e 8 -c 2 -a 0 -i 0 -k MAC
+ -t 1.000640000 -s 0 -d -1 -p CM7 -e 8 -c 2 -a 34 -i 0 -k MAC 
- -t 1.000640000 -s 0 -d -1 -p CM7 -e 8 -c 2 -a 34 -i 0 -k MAC
h -t 1.000640000 -s 0 -d -1 -p CM7 -e 8 -c 2 -a 34 -i 0 -k MAC -R 15.00 -D 0.00
+ -t 1.502240000 -s 2 -d -1 -p CM7 -e 8 -c 2 -a 0 -i 0 -k MAC 
- -t 1.502240000 -s 2 -d -1 -p CM7 -e 8 -c 2 -a 0 -i 0 -k MAC
h -t 1.502240000 -s 2 -d -1 -p CM7 -e 8 -c 2 -a 0 -i 0 -k MAC -R 15.00 -D 0.00
r -t 1.502688033 -s 3 -d -1 -p CM7 -e 8 -c 2 -a 0 -i 0 -k MAC
d -t 1.502688033 -s 1 -d -1 -p CM7 -e 8 -c 2 -a 0 -i 0 -k MAC
+ -t 2.000320000 -s 0 -d -1 -p CM7 -e 8 -c 2 -a 34 -i 0 -k MAC 
- -t 2.000320000 -s 0 -d -1 -p CM7 -e 8 -c 2 -a 34 -i 0 -k MAC
h -t 2.000320000 -s 0 -d -1 -p CM7 -e 8 -c 2 -a 34 -i 0 -k MAC -R 15.00 -D 0.00
+ -t 2.483040000 -s 1 -d -1 -p CM7 -e 8 -c 2 -a 0 -i 0 -k MAC 
- -t 2.483040000 -s 1 -d -1 -p CM7 -e 8 -c 2 -a 0 -i 0 -k MAC
h -t 2.483040000 -s 1 -d -1 -p CM7 -e 8 -c 2 -a 0 -i 0 -k MAC -R 15.00 -D 0.00
+ -t 2.502240000 -s 3 -d -1 -p CM7 -e 8 -c 2 -a 0 -i 0 -k MAC 
- -t 2.502240000 -s 3 -d -1 -p CM7 -e 8 -c 2 -a 0 -i 0 -k MAC
h -t 2.502240000 -s 3 -d -1 -p CM7 -e 8 -c 2 -a 0 -i 0 -k MAC -R 15.00 -D 0.00
r -t 2.502688033 -s 4 -d -1 -p CM7 -e 8 -c 2 -a 0 -i 0 -k MAC
d -t 2.502688033 -s 2 -d -1 -p CM7 -e 8 -c 2 -a 0 -i 0 -k MAC
+ -t 2.999552000 -s 0 -d -1 -p BCN -e 12 -c 2 -a 34 -i 0 -k MAC 
- -t 2.999552000 -s 0 -d -1 -p BCN -e 12 -c 2 -a 34 -i 0 -k MAC
h -t 2.999552000 -s 0 -d -1 -p BCN -e 12 -c 2 -a 34 -i 0 -k MAC -R 15.00 -D 0.00
+ -t 3.486240000 -s 2 -d -1 -p CM7 -e 8 -c 2 -a 0 -i 0 -k MAC 
- -t 3.486240000 -s 2 -d -1 -p CM7 -e 8 -c 2 -a 0 -i 0 -k MAC
h -t 3.486240000 -s 2 -d -1 -p CM7 -e 8 -c 2 -a 0 -i 0 -k MAC -R 15.00 -D 0.00
d -t 3.486688033 -s 1 -d -1 -p CM7 -e 8 -c 2 -a 0 -i 0 -k MAC
+ -t 3.502560000 -s 4 -d -1 -p CM7 -e 8 -c 2 -a 0 -i 0 -k MAC 
- -t 3.502560000 -s 4 -d -1 -p CM7 -e 8 -c 2 -a 0 -i 0 -k MAC
h -t 3.502560000 -s 4 -d -1 -p CM7 -e 8 -c 2 -a 0 -i 0 -k MAC -R 15.00 -D 0.00
r -t 3.503008033 -s 0 -d -1 -p CM7 -e 8 -c 2 -a 0 -i 0 -k MAC
d -t 3.503008033 -s 3 -d -1 -p CM7 -e 8 -c 2 -a 0 -i 0 -k MAC
r -t 3.503008033 -s 5 -d -1 -p CM7 -e 8 -c 2 -a 0 -i 0 -k MAC
+ -t 3.982592000 -s 0 -d -1 -p BCN -e 12 -c 2 -a 34 -i 0 -k MAC 
- -t 3.982592000 -s 0 -d -1 -p BCN -e 12 -c 2 -a 34 -i 0 -k MAC
h -t 3.982592000 -s 0 -d -1 -p BCN -e 12 -c 2 -a 34 -i 0 -k MAC -R 15.00 -D 0.00
+ -t 4.465760000 -s 1 -d -1 -p CM7 -e 8 -c 2 -a 0 -i 0 -k MAC 
- -t 4.465760000 -s 1 -d -1 -p CM7 -e 8 -c 2 -a 0 -i 0 -k MAC
h -t 4.465760000 -s 1 -d -1 -p CM7 -e 8 -c 2 -a 0 -i 0 -k MAC -R 15.00 -D 0.00
+ -t 4.486240000 -s 3 -d -1 -p CM7 -e 8 -c 2 -a 0 -i 0 -k MAC 
- -t 4.486240000 -s 3 -d -1 -p CM7 -e 8 -c 2 -a 0 -i 0 -k MAC
h -t 4.486240000 -s 3 -d -1 -p CM7 -e 8 -c 2 -a 0 -i 0 -k MAC -R 15.00 -D 0.00
d -t 4.486688033 -s 2 -d -1 -p CM7 -e 8 -c 2 -a 0 -i 0 -k MAC
+ -t 4.500960000 -s 5 -d -1 -p CM7 -e 8 -c 2 -a 0 -i 0 -k MAC 
- -t 4.500960000 -s 5 -d -1 -p CM7 -e 8 -c 2 -a 0 -i 0 -k MAC
h -t 4.500960000 -s 5 -d -1 -p CM7 -e 8 -c 2 -a 0 -i 0 -k MAC -R 15.00 -D 0.00
r -t 4.501408033 -s 0 -d -1 -p CM7 -e 8 -c 2 -a 0 -i 0 -k MAC
r -t 4.501408033 -s 6 -d -1 -p CM7 -e 8 -c 2 -a 0 -i 0 -k MAC
d -t 4.501408033 -s 4 -d -1 -p CM7 -e 8 -c 2 -a 0 -i 0 -k MAC
+ -t 4.965632000 -s 0 -d -1 -p BCN -e 12 -c 2 -a 34 -i 0 -k MAC 
- -t 4.965632000 -s 0 -d -1 -p BCN -e 12 -c 2 -a 34 -i 0 -k MAC
h -t 4.965632000 -s 0 -d -1 -p BCN -e 12 -c 2 -a 34 -i 0 -k MAC -R 15.00 -D 0.00
+ -t 5.469920000 -s 2 -d -1 -p CM7 -e 8 -c 2 -a 0 -i 0 -k MAC 
- -t 5.469920000 -s 2 -d -1 -p CM7 -e 8 -c 2 -a 0 -i 0 -k MAC
h -t 5.469920000 -s 2 -d -1 -p CM7 -e 8 -c 2 -a 0 -i 0 -k MAC -R 15.00 -D 0.00
d -t 5.470368033 -s 1 -d -1 -p CM7 -e 8 -c 2 -a 0 -i 0 -k MAC
+ -t 5.485920000 -s 4 -d -1 -p CM7 -e 8 -c 2 -a 0 -i 0 -k MAC 
- -t 5.485920000 -s 4 -d -1 -p CM7 -e 8 -c 2 -a 0 -i 0 -k MAC
h -t 5.485920000 -s 4 -d -1 -p CM7 -e 8 -c 2 -a 0 -i 0 -k MAC -R 15.00 -D 0.00
d -t 5.486368033 -s 3 -d -1 -p CM7 -e 8 -c 2 -a 0 -i 0 -k MAC
+ -t 5.501280000 -s 6 -d -1 -p CM7 -e 8 -c 2 -a 0 -i 0 -k MAC 
- -t 5.501280000 -s 6 -d -1 -p CM7 -e 8 -c 2 -a 0 -i 0 -k MAC
h -t 5.501280000 -s 6 -d -1 -p CM7 -e 8 -c 2 -a 0 -i 0 -k MAC -R 15.00 -D 0.00
r -t 5.501728033 -s 0 -d -1 -p CM7 -e 8 -c 2 -a 0 -i 0 -k MAC
d -t 5.501728033 -s 5 -d -1 -p CM7 -e 8 -c 2 -a 0 -i 0 -k MAC
+ -t 5.948672000 -s 0 -d -1 -p BCN -e 12 -c 2 -a 34 -i 0 -k MAC 
- -t 5.948672000 -s 0 -d -1 -p BCN -e 12 -c 2 -a 34 -i 0 -k MAC
h -t 5.948672000 -s 0 -d -1 -p BCN -e 12 -c 2 -a 34 -i 0 -k MAC -R 15.00 -D 0.00
+ -t 6.469600000 -s 3 -d -1 -p CM7 -e 8 -c 2 -a 0 -i 0 -k MAC 
- -t 6.469600000 -s 3 -d -1 -p CM7 -e 8 -c 2 -a 0 -i 0 -k MAC
h -t 6.469600000 -s 3 -d -1 -p CM7 -e 8 -c 2 -a 0 -i 0 -k MAC -R 15.00 -D 0.00
d -t 6.470048033 -s 2 -d -1 -p CM7 -e 8 -c 2 -a 0 -i 0 -k MAC
+ -t 6.484960000 -s 5 -d -1 -p CM7 -e 8 -c 2 -a 0 -i 0 -k MAC 
- -t 6.484960000 -s 5 -d -1 -p CM7 -e 8 -c 2 -a 0 -i 0 -k MAC
h -t 6.484960000 -s 5 -d -1 -p CM7 -e 8 -c 2 -a 0 -i 0 -k MAC -R 15.00 -D 0.00
d -t 6.485408033 -s 4 -d -1 -p CM7 -e 8 -c 2 -a 0 -i 0 -k MAC
+ -t 6.931712000 -s 0 -d -1 -p BCN -e 12 -c 2 -a 34 -i 0 -k MAC 
- -t 6.931712000 -s 0 -d -1 -p BCN -e 12 -c 2 -a 34 -i 0 -k MAC
h -t 6.931712000 -s 0 -d -1 -p BCN -e 12 -c 2 -a 34 -i 0 -k MAC -R 15.00 -D 0.00
v -t 7 -e sim_annotation 7 1 (at 7.0) ftp traffic from node 0 to node 1
v -t 7.000000001 -e set_rate_ext 0.20ms 1
+ -t 7.002432000 -s 0 -d -1 -p AODV -e 55 -c 2 -a 32 -i 0 -k MAC 
- -t 7.002432000 -s 0 -d -1 -p AODV -e 55 -c 2 -a 32 -i 0 -k MAC
h -t 7.002432000 -s 0 -d -1 -p AODV -e 55 -c 2 -a 32 -i 0 -k MAC -R 15.00 -D 0.00
d -t 7.004384033 -s 6 -d -1 -p AODV -e 55 -c 2 -a 32 -i 0 -k MAC
v -t 7.2 -e sim_annotation 7.2 2 (at 7.2) ftp traffic from node 0 to node 3
+ -t 7.201792000 -s 0 -d -1 -p AODV -e 55 -c 2 -a 32 -i 0 -k MAC 
- -t 7.201792000 -s 0 -d -1 -p AODV -e 55 -c 2 -a 32 -i 0 -k MAC
h -t 7.201792000 -s 0 -d -1 -p AODV -e 55 -c 2 -a 32 -i 0 -k MAC -R 15.00 -D 0.00
d -t 7.203744033 -s 6 -d -1 -p AODV -e 55 -c 2 -a 32 -i 0 -k MAC
v -t 7.4 -e sim_annotation 7.4 3 (at 7.4) ftp traffic from node 0 to node 5
+ -t 7.402112000 -s 0 -d -1 -p AODV -e 55 -c 2 -a 32 -i 0 -k MAC 
- -t 7.402112000 -s 0 -d -1 -p AODV -e 55 -c 2 -a 32 -i 0 -k MAC
h -t 7.402112000 -s 0 -d -1 -p AODV -e 55 -c 2 -a 32 -i 0 -k MAC -R 15.00 -D 0.00
d -t 7.404064033 -s 6 -d -1 -p AODV -e 55 -c 2 -a 32 -i 0 -k MAC
+ -t 7.448480000 -s 1 -d -1 -p CM7 -e 8 -c 2 -a 0 -i 0 -k MAC 
- -t 7.448480000 -s 1 -d -1 -p CM7 -e 8 -c 2 -a 0 -i 0 -k MAC
h -t 7.448480000 -s 1 -d -1 -p CM7 -e 8 -c 2 -a 0 -i 0 -k MAC -R 15.00 -D 0.00
d -t 7.448928033 -s 6 -d -1 -p CM7 -e 8 -c 2 -a 0 -i 0 -k MAC
r -t 7.448928033 -s 0 -d -1 -p CM7 -e 8 -c 2 -a 0 -i 0 -k MAC
+ -t 7.452320000 -s 2 -d 0 -p ACRP -e 17 -c 2 -a 0 -i 0 -k MAC 
- -t 7.452320000 -s 2 -d 0 -p ACRP -e 17 -c 2 -a 0 -i 0 -k MAC
h -t 7.452320000 -s 2 -d 0 -p ACRP -e 17 -c 2 -a 0 -i 0 -k MAC
r -t 7.453056033 -s 0 -d 0 -p ACRP -e 17 -c 2 -a 0 -i 0 -k MAC
+ -t 7.453312000 -s 0 -d 2 -p ACK -e 5 -c 2 -a 0 -i 0 -k MAC 
- -t 7.453312000 -s 0 -d 2 -p ACK -e 5 -c 2 -a 0 -i 0 -k MAC
h -t 7.453312000 -s 0 -d 2 -p ACK -e 5 -c 2 -a 0 -i 0 -k MAC
r -t 7.453664033 -s 2 -d 2 -p ACK -e 5 -c 2 -a 0 -i 0 -k MAC
+ -t 7.470560000 -s 4 -d -1 -p CM7 -e 8 -c 2 -a 0 -i 0 -k MAC 
- -t 7.470560000 -s 4 -d -1 -p CM7 -e 8 -c 2 -a 0 -i 0 -k MAC
h -t 7.470560000 -s 4 -d -1 -p CM7 -e 8 -c 2 -a 0 -i 0 -k MAC -R 15.00 -D 0.00
d -t 7.471008033 -s 3 -d -1 -p CM7 -e 8 -c 2 -a 0 -i 0 -k MAC
+ -t 7.484000000 -s 6 -d -1 -p CM7 -e 8 -c 2 -a 0 -i 0 -k MAC 
- -t 7.484000000 -s 6 -d -1 -p CM7 -e 8 -c 2 -a 0 -i 0 -k MAC
h -t 7.484000000 -s 6 -d -1 -p CM7 -e 8 -c 2 -a 0 -i 0 -k MAC -R 15.00 -D 0.00
d -t 7.484448033 -s 5 -d -1 -p CM7 -e 8 -c 2 -a 0 -i 0 -k MAC
v -t 7.500000001 -e set_rate_ext 1.5ms 1
+ -t 7.914752000 -s 0 -d -1 -p BCN -e 20 -c 2 -a 34 -i 0 -k MAC 
- -t 7.914752000 -s 0 -d -1 -p BCN -e 20 -c 2 -a 34 -i 0 -k MAC
h -t 7.914752000 -s 0 -d -1 -p BCN -e 20 -c 2 -a 34 -i 0 -k MAC -R 15.00 -D 0.00
+ -t 7.945184033 -s 2 -d 0 -p CM4 -e 16 -c 2 -a 0 -i 0 -k MAC 
- -t 7.945184033 -s 2 -d 0 -p CM4 -e 16 -c 2 -a 0 -i 0 -k MAC
h -t 7.945184033 -s 2 -d 0 -p CM4 -e 16 -c 2 -a 0 -i 0 -k MAC
r -t 7.945888067 -s 0 -d 0 -p CM4 -e 16 -c 2 -a 0 -i 0 -k MAC
+ -t 7.946112000 -s 0 -d 2 -p ACK -e 5 -c 2 -a 0 -i 0 -k MAC 
- -t 7.946112000 -s 0 -d 2 -p ACK -e 5 -c 2 -a 0 -i 0 -k MAC
h -t 7.946112000 -s 0 -d 2 -p ACK -e 5 -c 2 -a 0 -i 0 -k MAC
r -t 7.946464033 -s 2 -d 2 -p ACK -e 5 -c 2 -a 0 -i 0 -k MAC
+ -t 7.946752000 -s 0 -d 2 -p CM2 -e 25 -c 2 -a 0 -i 0 -k MAC 
- -t 7.946752000 -s 0 -d 2 -p CM2 -e 25 -c 2 -a 0 -i 0 -k MAC
h -t 7.946752000 -s 0 -d 2 -p CM2 -e 25 -c 2 -a 0 -i 0 -k MAC
r -t 7.947744033 -s 2 -d 2 -p CM2 -e 25 -c 2 -a 0 -i 0 -k MAC
+ -t 7.947936033 -s 2 -d 0 -p ACK -e 5 -c 2 -a 0 -i 0 -k MAC 
- -t 7.947936033 -s 2 -d 0 -p ACK -e 5 -c 2 -a 0 -i 0 -k MAC
h -t 7.947936033 -s 2 -d 0 -p ACK -e 5 -c 2 -a 0 -i 0 -k MAC
r -t 7.948288067 -s 0 -d 0 -p ACK -e 5 -c 2 -a 0 -i 0 -k MAC
n -t 7.948928034 -s 2 -S DLABEL -l [0] -L ""
+ -t 8.454240000 -s 3 -d 0 -p ACRP -e 17 -c 2 -a 0 -i 0 -k MAC 
- -t 8.454240000 -s 3 -d 0 -p ACRP -e 17 -c 2 -a 0 -i 0 -k MAC
h -t 8.454240000 -s 3 -d 0 -p ACRP -e 17 -c 2 -a 0 -i 0 -k MAC
r -t 8.454976033 -s 0 -d 0 -p ACRP -e 17 -c 2 -a 0 -i 0 -k MAC
+ -t 8.455232000 -s 0 -d 3 -p ACK -e 5 -c 2 -a 0 -i 0 -k MAC 
- -t 8.455232000 -s 0 -d 3 -p ACK -e 5 -c 2 -a 0 -i 0 -k MAC
h -t 8.455232000 -s 0 -d 3 -p ACK -e 5 -c 2 -a 0 -i 0 -k MAC
r -t 8.455584033 -s 3 -d 3 -p ACK -e 5 -c 2 -a 0 -i 0 -k MAC
+ -t 8.468000000 -s 5 -d -1 -p CM7 -e 8 -c 2 -a 0 -i 0 -k MAC 
- -t 8.468000000 -s 5 -d -1 -p CM7 -e 8 -c 2 -a 0 -i 0 -k MAC
h -t 8.468000000 -s 5 -d -1 -p CM7 -e 8 -c 2 -a 0 -i 0 -k MAC -R 15.00 -D 0.00
d -t 8.468448033 -s 4 -d -1 -p CM7 -e 8 -c 2 -a 0 -i 0 -k MAC
+ -t 8.897792000 -s 0 -d -1 -p BCN -e 20 -c 2 -a 34 -i 0 -k MAC 
- -t 8.897792000 -s 0 -d -1 -p BCN -e 20 -c 2 -a 34 -i 0 -k MAC
h -t 8.897792000 -s 0 -d -1 -p BCN -e 20 -c 2 -a 34 -i 0 -k MAC -R 15.00 -D 0.00
r -t 8.898624033 -s 2 -d -1 -p BCN -e 20 -c 2 -a 34 -i 0 -k MAC
+ -t 8.947104033 -s 3 -d 0 -p CM4 -e 16 -c 2 -a 0 -i 0 -k MAC 
- -t 8.947104033 -s 3 -d 0 -p CM4 -e 16 -c 2 -a 0 -i 0 -k MAC
h -t 8.947104033 -s 3 -d 0 -p CM4 -e 16 -c 2 -a 0 -i 0 -k MAC
r -t 8.947808067 -s 0 -d 0 -p CM4 -e 16 -c 2 -a 0 -i 0 -k MAC
+ -t 8.948032000 -s 0 -d 3 -p ACK -e 5 -c 2 -a 0 -i 0 -k MAC 
- -t 8.948032000 -s 0 -d 3 -p ACK -e 5 -c 2 -a 0 -i 0 -k MAC
h -t 8.948032000 -s 0 -d 3 -p ACK -e 5 -c 2 -a 0 -i 0 -k MAC
r -t 8.948384033 -s 3 -d 3 -p ACK -e 5 -c 2 -a 0 -i 0 -k MAC
+ -t 8.948672000 -s 0 -d 3 -p CM2 -e 25 -c 2 -a 0 -i 0 -k MAC 
- -t 8.948672000 -s 0 -d 3 -p CM2 -e 25 -c 2 -a 0 -i 0 -k MAC
h -t 8.948672000 -s 0 -d 3 -p CM2 -e 25 -c 2 -a 0 -i 0 -k MAC
r -t 8.949664033 -s 3 -d 3 -p CM2 -e 25 -c 2 -a 0 -i 0 -k MAC
+ -t 8.949856033 -s 3 -d 0 -p ACK -e 5 -c 2 -a 0 -i 0 -k MAC 
- -t 8.949856033 -s 3 -d 0 -p ACK -e 5 -c 2 -a 0 -i 0 -k MAC
h -t 8.949856033 -s 3 -d 0 -p ACK -e 5 -c 2 -a 0 -i 0 -k MAC
r -t 8.950208067 -s 0 -d 0 -p ACK -e 5 -c 2 -a 0 -i 0 -k MAC
n -t 8.950848034 -s 3 -S DLABEL -l [0] -L ""
+ -t 9.003072000 -s 0 -d -1 -p AODV -e 55 -c 2 -a 32 -i 0 -k MAC 
- -t 9.003072000 -s 0 -d -1 -p AODV -e 55 -c 2 -a 32 -i 0 -k MAC
h -t 9.003072000 -s 0 -d -1 -p AODV -e 55 -c 2 -a 32 -i 0 -k MAC -R 15.00 -D 0.00
d -t 9.005024033 -s 1 -d -1 -p AODV -e 55 -c 2 -a 32 -i 0 -k MAC
r -t 9.005664033 -s 3 -d -1 -p AODV -e 48 -c 2 -a 32 -i 0 -k MAC
r -t 9.005664033 -s 2 -d -1 -p AODV -e 48 -c 2 -a 32 -i 0 -k MAC
+ -t 9.006272000 -s 0 -d -1 -p AODV -e 55 -c 2 -a 32 -i 0 -k MAC 
- -t 9.006272000 -s 0 -d -1 -p AODV -e 55 -c 2 -a 32 -i 0 -k MAC
h -t 9.006272000 -s 0 -d -1 -p AODV -e 55 -c 2 -a 32 -i 0 -k MAC -R 15.00 -D 0.00
d -t 9.008224033 -s 1 -d -1 -p AODV -e 55 -c 2 -a 32 -i 0 -k MAC
r -t 9.008864033 -s 3 -d -1 -p AODV -e 48 -c 2 -a 32 -i 0 -k MAC
r -t 9.008864033 -s 2 -d -1 -p AODV -e 48 -c 2 -a 32 -i 0 -k MAC
+ -t 9.009982033 -s 3 -d -1 -p ARP -e 35 -c 2 -a 33 -i 0 -k MAC 
- -t 9.009982033 -s 3 -d -1 -p ARP -e 35 -c 2 -a 33 -i 0 -k MAC
h -t 9.009982033 -s 3 -d -1 -p ARP -e 35 -c 2 -a 33 -i 0 -k MAC -R 15.00 -D 0.00
r -t 9.011934067 -s 0 -d -1 -p ARP -e 28 -c 2 -a 33 -i 0 -k MAC
r -t 9.011934067 -s 2 -d -1 -p ARP -e 28 -c 2 -a 33 -i 0 -k MAC
+ -t 9.012672033 -s 2 -d -1 -p AODV -e 55 -c 2 -a 32 -i 0 -k MAC 
- -t 9.012672033 -s 2 -d -1 -p AODV -e 55 -c 2 -a 32 -i 0 -k MAC
h -t 9.012672033 -s 2 -d -1 -p AODV -e 55 -c 2 -a 32 -i 0 -k MAC -R 15.00 -D 0.00
d -t 9.014624067 -s 1 -d -1 -p AODV -e 55 -c 2 -a 32 -i 0 -k MAC
r -t 9.015264067 -s 0 -d -1 -p AODV -e 48 -c 2 -a 32 -i 0 -k MAC
r -t 9.015264067 -s 3 -d -1 -p AODV -e 48 -c 2 -a 32 -i 0 -k MAC
+ -t 9.016512033 -s 2 -d -1 -p AODV -e 55 -c 2 -a 32 -i 0 -k MAC 
- -t 9.016512033 -s 2 -d -1 -p AODV -e 55 -c 2 -a 32 -i 0 -k MAC
h -t 9.016512033 -s 2 -d -1 -p AODV -e 55 -c 2 -a 32 -i 0 -k MAC -R 15.00 -D 0.00
+ -t 9.016560272 -s 3 -d -1 -p AODV -e 55 -c 2 -a 32 -i 0 -k MAC 
- -t 9.016560272 -s 3 -d -1 -p AODV -e 55 -c 2 -a 32 -i 0 -k MAC
h -t 9.016560272 -s 3 -d -1 -p AODV -e 55 -c 2 -a 32 -i 0 -k MAC -R 15.00 -D 0.00
d -t 9.018464067 -s 1 -d -1 -p AODV -e 55 -c 2 -a 32 -i 0 -k MAC
d -t 9.018512306 -s 0 -d -1 -p AODV -e 55 -c 2 -a 32 -i 0 -k MAC
+ -t 9.432800000 -s 1 -d -1 -p CM7 -e 8 -c 2 -a 0 -i 0 -k MAC 
- -t 9.432800000 -s 1 -d -1 -p CM7 -e 8 -c 2 -a 0 -i 0 -k MAC
h -t 9.432800000 -s 1 -d -1 -p CM7 -e 8 -c 2 -a 0 -i 0 -k MAC -R 15.00 -D 0.00
d -t 9.433248033 -s 6 -d -1 -p CM7 -e 8 -c 2 -a 0 -i 0 -k MAC
+ -t 9.454560000 -s 4 -d 0 -p ACRP -e 17 -c 2 -a 0 -i 0 -k MAC 
- -t 9.454560000 -s 4 -d 0 -p ACRP -e 17 -c 2 -a 0 -i 0 -k MAC
h -t 9.454560000 -s 4 -d 0 -p ACRP -e 17 -c 2 -a 0 -i 0 -k MAC
r -t 9.455296033 -s 0 -d 0 -p ACRP -e 17 -c 2 -a 0 -i 0 -k MAC
+ -t 9.455552000 -s 0 -d 4 -p ACK -e 5 -c 2 -a 0 -i 0 -k MAC 
- -t 9.455552000 -s 0 -d 4 -p ACK -e 5 -c 2 -a 0 -i 0 -k MAC
h -t 9.455552000 -s 0 -d 4 -p ACK -e 5 -c 2 -a 0 -i 0 -k MAC
r -t 9.455904033 -s 4 -d 4 -p ACK -e 5 -c 2 -a 0 -i 0 -k MAC
+ -t 9.468640000 -s 6 -d -1 -p CM7 -e 8 -c 2 -a 0 -i 0 -k MAC 
- -t 9.468640000 -s 6 -d -1 -p CM7 -e 8 -c 2 -a 0 -i 0 -k MAC
h -t 9.468640000 -s 6 -d -1 -p CM7 -e 8 -c 2 -a 0 -i 0 -k MAC -R 15.00 -D 0.00
d -t 9.469088033 -s 5 -d -1 -p CM7 -e 8 -c 2 -a 0 -i 0 -k MAC
+ -t 9.880832000 -s 0 -d -1 -p BCN -e 20 -c 2 -a 34 -i 0 -k MAC 
- -t 9.880832000 -s 0 -d -1 -p BCN -e 20 -c 2 -a 34 -i 0 -k MAC
h -t 9.880832000 -s 0 -d -1 -p BCN -e 20 -c 2 -a 34 -i 0 -k MAC -R 15.00 -D 0.00
r -t 9.881664033 -s 3 -d -1 -p BCN -e 20 -c 2 -a 34 -i 0 -k MAC
r -t 9.881664033 -s 2 -d -1 -p BCN -e 20 -c 2 -a 34 -i 0 -k MAC
+ -t 9.947424033 -s 4 -d 0 -p CM4 -e 16 -c 2 -a 0 -i 0 -k MAC 
- -t 9.947424033 -s 4 -d 0 -p CM4 -e 16 -c 2 -a 0 -i 0 -k MAC
h -t 9.947424033 -s 4 -d 0 -p CM4 -e 16 -c 2 -a 0 -i 0 -k MAC
r -t 9.948128067 -s 0 -d 0 -p CM4 -e 16 -c 2 -a 0 -i 0 -k MAC
+ -t 9.948352000 -s 0 -d 4 -p ACK -e 5 -c 2 -a 0 -i 0 -k MAC 
- -t 9.948352000 -s 0 -d 4 -p ACK -e 5 -c 2 -a 0 -i 0 -k MAC
h -t 9.948352000 -s 0 -d 4 -p ACK -e 5 -c 2 -a 0 -i 0 -k MAC
r -t 9.948704033 -s 4 -d 4 -p ACK -e 5 -c 2 -a 0 -i 0 -k MAC
+ -t 9.948992000 -s 0 -d 4 -p CM2 -e 25 -c 2 -a 0 -i 0 -k MAC 
- -t 9.948992000 -s 0 -d 4 -p CM2 -e 25 -c 2 -a 0 -i 0 -k MAC
h -t 9.948992000 -s 0 -d 4 -p CM2 -e 25 -c 2 -a 0 -i 0 -k MAC
r -t 9.949984033 -s 4 -d 4 -p CM2 -e 25 -c 2 -a 0 -i 0 -k MAC
+ -t 9.950176033 -s 4 -d 0 -p ACK -e 5 -c 2 -a 0 -i 0 -k MAC 
- -t 9.950176033 -s 4 -d 0 -p ACK -e 5 -c 2 -a 0 -i 0 -k MAC
h -t 9.950176033 -s 4 -d 0 -p ACK -e 5 -c 2 -a 0 -i 0 -k MAC
r -t 9.950528067 -s 0 -d 0 -p ACK -e 5 -c 2 -a 0 -i 0 -k MAC
n -t 9.951168034 -s 4 -S DLABEL -l [0] -L ""
+ -t 10.452320000 -s 5 -d 0 -p ACRP -e 17 -c 2 -a 0 -i 0 -k MAC 
- -t 10.452320000 -s 5 -d 0 -p ACRP -e 17 -c 2 -a 0 -i 0 -k MAC
h -t 10.452320000 -s 5 -d 0 -p ACRP -e 17 -c 2 -a 0 -i 0 -k MAC
r -t 10.453056033 -s 0 -d 0 -p ACRP -e 17 -c 2 -a 0 -i 0 -k MAC
+ -t 10.453312000 -s 0 -d 5 -p ACK -e 5 -c 2 -a 0 -i 0 -k MAC 
- -t 10.453312000 -s 0 -d 5 -p ACK -e 5 -c 2 -a 0 -i 0 -k MAC
h -t 10.453312000 -s 0 -d 5 -p ACK -e 5 -c 2 -a 0 -i 0 -k MAC
r -t 10.453664033 -s 5 -d 5 -p ACK -e 5 -c 2 -a 0 -i 0 -k MAC
+ -t 10.863872000 -s 0 -d -1 -p BCN -e 20 -c 2 -a 34 -i 0 -k MAC 
- -t 10.863872000 -s 0 -d -1 -p BCN -e 20 -c 2 -a 34 -i 0 -k MAC
h -t 10.863872000 -s 0 -d -1 -p BCN -e 20 -c 2 -a 34 -i 0 -k MAC -R 15.00 -D 0.00
r -t 10.864704033 -s 3 -d -1 -p BCN -e 20 -c 2 -a 34 -i 0 -k MAC
r -t 10.864704033 -s 4 -d -1 -p BCN -e 20 -c 2 -a 34 -i 0 -k MAC
r -t 10.864704033 -s 2 -d -1 -p BCN -e 20 -c 2 -a 34 -i 0 -k MAC
+ -t 10.945184033 -s 5 -d 0 -p CM4 -e 16 -c 2 -a 0 -i 0 -k MAC 
- -t 10.945184033 -s 5 -d 0 -p CM4 -e 16 -c 2 -a 0 -i 0 -k MAC
h -t 10.945184033 -s 5 -d 0 -p CM4 -e 16 -c 2 -a 0 -i 0 -k MAC
r -t 10.945888067 -s 0 -d 0 -p CM4 -e 16 -c 2 -a 0 -i 0 -k MAC
+ -t 10.946112000 -s 0 -d 5 -p ACK -e 5 -c 2 -a 0 -i 0 -k MAC 
- -t 10.946112000 -s 0 -d 5 -p ACK -e 5 -c 2 -a 0 -i 0 -k MAC
h -t 10.946112000 -s 0 -d 5 -p ACK -e 5 -c 2 -a 0 -i 0 -k MAC
r -t 10.946464033 -s 5 -d 5 -p ACK -e 5 -c 2 -a 0 -i 0 -k MAC
+ -t 10.946752000 -s 0 -d 5 -p CM2 -e 25 -c 2 -a 0 -i 0 -k MAC 
- -t 10.946752000 -s 0 -d 5 -p CM2 -e 25 -c 2 -a 0 -i 0 -k MAC
h -t 10.946752000 -s 0 -d 5 -p CM2 -e 25 -c 2 -a 0 -i 0 -k MAC
r -t 10.947744033 -s 5 -d 5 -p CM2 -e 25 -c 2 -a 0 -i 0 -k MAC
+ -t 10.947936033 -s 5 -d 0 -p ACK -e 5 -c 2 -a 0 -i 0 -k MAC 
- -t 10.947936033 -s 5 -d 0 -p ACK -e 5 -c 2 -a 0 -i 0 -k MAC
h -t 10.947936033 -s 5 -d 0 -p ACK -e 5 -c 2 -a 0 -i 0 -k MAC
r -t 10.948288067 -s 0 -d 0 -p ACK -e 5 -c 2 -a 0 -i 0 -k MAC
n -t 10.948928034 -s 5 -S DLABEL -l [0] -L ""
+ -t 11.415520000 -s 1 -d -1 -p CM7 -e 8 -c 2 -a 0 -i 0 -k MAC 
- -t 11.415520000 -s 1 -d -1 -p CM7 -e 8 -c 2 -a 0 -i 0 -k MAC
h -t 11.415520000 -s 1 -d -1 -p CM7 -e 8 -c 2 -a 0 -i 0 -k MAC -R 15.00 -D 0.00
d -t 11.415968033 -s 6 -d -1 -p CM7 -e 8 -c 2 -a 0 -i 0 -k MAC
+ -t 11.452640000 -s 6 -d 0 -p ACRP -e 17 -c 2 -a 0 -i 0 -k MAC 
- -t 11.452640000 -s 6 -d 0 -p ACRP -e 17 -c 2 -a 0 -i 0 -k MAC
h -t 11.452640000 -s 6 -d 0 -p ACRP -e 17 -c 2 -a 0 -i 0 -k MAC
r -t 11.453376033 -s 0 -d 0 -p ACRP -e 17 -c 2 -a 0 -i 0 -k MAC
+ -t 11.453632000 -s 0 -d 6 -p ACK -e 5 -c 2 -a 0 -i 0 -k MAC 
- -t 11.453632000 -s 0 -d 6 -p ACK -e 5 -c 2 -a 0 -i 0 -k MAC
h -t 11.453632000 -s 0 -d 6 -p ACK -e 5 -c 2 -a 0 -i 0 -k MAC
r -t 11.453984033 -s 6 -d 6 -p ACK -e 5 -c 2 -a 0 -i 0 -k MAC
+ -t 11.846912000 -s 0 -d -1 -p BCN -e 20 -c 2 -a 34 -i 0 -k MAC 
- -t 11.846912000 -s 0 -d -1 -p BCN -e 20 -c 2 -a 34 -i 0 -k MAC
h -t 11.846912000 -s 0 -d -1 -p BCN -e 20 -c 2 -a 34 -i 0 -k MAC -R 15.00 -D 0.00
r -t 11.847744033 -s 3 -d -1 -p BCN -e 20 -c 2 -a 34 -i 0 -k MAC
r -t 11.847744033 -s 4 -d -1 -p BCN -e 20 -c 2 -a 34 -i 0 -k MAC
r -t 11.847744033 -s 2 -d -1 -p BCN -e 20 -c 2 -a 34 -i 0 -k MAC
r -t 11.847744033 -s 5 -d -1 -p BCN -e 20 -c 2 -a 34 -i 0 -k MAC
+ -t 11.945504033 -s 6 -d 0 -p CM4 -e 16 -c 2 -a 0 -i 0 -k MAC 
- -t 11.945504033 -s 6 -d 0 -p CM4 -e 16 -c 2 -a 0 -i 0 -k MAC
h -t 11.945504033 -s 6 -d 0 -p CM4 -e 16 -c 2 -a 0 -i 0 -k MAC
r -t 11.946208067 -s 0 -d 0 -p CM4 -e 16 -c 2 -a 0 -i 0 -k MAC
+ -t 11.946432000 -s 0 -d 6 -p ACK -e 5 -c 2 -a 0 -i 0 -k MAC 
- -t 11.946432000 -s 0 -d 6 -p ACK -e 5 -c 2 -a 0 -i 0 -k MAC
h -t 11.946432000 -s 0 -d 6 -p ACK -e 5 -c 2 -a 0 -i 0 -k MAC
r -t 11.946784033 -s 6 -d 6 -p ACK -e 5 -c 2 -a 0 -i 0 -k MAC
+ -t 11.947072000 -s 0 -d 6 -p CM2 -e 25 -c 2 -a 0 -i 0 -k MAC 
- -t 11.947072000 -s 0 -d 6 -p CM2 -e 25 -c 2 -a 0 -i 0 -k MAC
h -t 11.947072000 -s 0 -d 6 -p CM2 -e 25 -c 2 -a 0 -i 0 -k MAC
r -t 11.948064033 -s 6 -d 6 -p CM2 -e 25 -c 2 -a 0 -i 0 -k MAC
+ -t 11.948256033 -s 6 -d 0 -p ACK -e 5 -c 2 -a 0 -i 0 -k MAC 
- -t 11.948256033 -s 6 -d 0 -p ACK -e 5 -c 2 -a 0 -i 0 -k MAC
h -t 11.948256033 -s 6 -d 0 -p ACK -e 5 -c 2 -a 0 -i 0 -k MAC
r -t 11.948608067 -s 0 -d 0 -p ACK -e 5 -c 2 -a 0 -i 0 -k MAC
n -t 11.949248034 -s 6 -S DLABEL -l [0] -L ""
+ -t 12.829952000 -s 0 -d -1 -p BCN -e 12 -c 2 -a 34 -i 0 -k MAC 
- -t 12.829952000 -s 0 -d -1 -p BCN -e 12 -c 2 -a 34 -i 0 -k MAC
h -t 12.829952000 -s 0 -d -1 -p BCN -e 12 -c 2 -a 34 -i 0 -k MAC -R 15.00 -D 0.00
r -t 12.830528033 -s 3 -d -1 -p BCN -e 12 -c 2 -a 34 -i 0 -k MAC
r -t 12.830528033 -s 6 -d -1 -p BCN -e 12 -c 2 -a 34 -i 0 -k MAC
r -t 12.830528033 -s 4 -d -1 -p BCN -e 12 -c 2 -a 34 -i 0 -k MAC
r -t 12.830528033 -s 2 -d -1 -p BCN -e 12 -c 2 -a 34 -i 0 -k MAC
r -t 12.830528033 -s 5 -d -1 -p BCN -e 12 -c 2 -a 34 -i 0 -k MAC
+ -t 13.398880000 -s 1 -d 0 -p ACRP -e 17 -c 2 -a 0 -i 0 -k MAC 
- -t 13.398880000 -s 1 -d 0 -p ACRP -e 17 -c 2 -a 0 -i 0 -k MAC
h -t 13.398880000 -s 1 -d 0 -p ACRP -e 17 -c 2 -a 0 -i 0 -k MAC
r -t 13.399616033 -s 0 -d 0 -p ACRP -e 17 -c 2 -a 0 -i 0 -k MAC
+ -t 13.399872000 -s 0 -d 1 -p ACK -e 5 -c 2 -a 0 -i 0 -k MAC 
- -t 13.399872000 -s 0 -d 1 -p ACK -e 5 -c 2 -a 0 -i 0 -k MAC
h -t 13.399872000 -s 0 -d 1 -p ACK -e 5 -c 2 -a 0 -i 0 -k MAC
r -t 13.400224033 -s 1 -d 1 -p ACK -e 5 -c 2 -a 0 -i 0 -k MAC
+ -t 13.812992000 -s 0 -d -1 -p BCN -e 20 -c 2 -a 34 -i 0 -k MAC 
- -t 13.812992000 -s 0 -d -1 -p BCN -e 20 -c 2 -a 34 -i 0 -k MAC
h -t 13.812992000 -s 0 -d -1 -p BCN -e 20 -c 2 -a 34 -i 0 -k MAC -R 15.00 -D 0.00
r -t 13.813824033 -s 3 -d -1 -p BCN -e 20 -c 2 -a 34 -i 0 -k MAC
r -t 13.813824033 -s 6 -d -1 -p BCN -e 20 -c 2 -a 34 -i 0 -k MAC
r -t 13.813824033 -s 4 -d -1 -p BCN -e 20 -c 2 -a 34 -i 0 -k MAC
r -t 13.813824033 -s 2 -d -1 -p BCN -e 20 -c 2 -a 34 -i 0 -k MAC
r -t 13.813824033 -s 5 -d -1 -p BCN -e 20 -c 2 -a 34 -i 0 -k MAC
+ -t 13.891744033 -s 1 -d 0 -p CM4 -e 16 -c 2 -a 0 -i 0 -k MAC 
- -t 13.891744033 -s 1 -d 0 -p CM4 -e 16 -c 2 -a 0 -i 0 -k MAC
h -t 13.891744033 -s 1 -d 0 -p CM4 -e 16 -c 2 -a 0 -i 0 -k MAC
r -t 13.892448067 -s 0 -d 0 -p CM4 -e 16 -c 2 -a 0 -i 0 -k MAC
+ -t 13.892672000 -s 0 -d 1 -p ACK -e 5 -c 2 -a 0 -i 0 -k MAC 
- -t 13.892672000 -s 0 -d 1 -p ACK -e 5 -c 2 -a 0 -i 0 -k MAC
h -t 13.892672000 -s 0 -d 1 -p ACK -e 5 -c 2 -a 0 -i 0 -k MAC
r -t 13.893024033 -s 1 -d 1 -p ACK -e 5 -c 2 -a 0 -i 0 -k MAC
+ -t 13.893312000 -s 0 -d 1 -p CM2 -e 25 -c 2 -a 0 -i 0 -k MAC 
- -t 13.893312000 -s 0 -d 1 -p CM2 -e 25 -c 2 -a 0 -i 0 -k MAC
h -t 13.893312000 -s 0 -d 1 -p CM2 -e 25 -c 2 -a 0 -i 0 -k MAC
r -t 13.894304033 -s 1 -d 1 -p CM2 -e 25 -c 2 -a 0 -i 0 -k MAC
+ -t 13.894496033 -s 1 -d 0 -p ACK -e 5 -c 2 -a 0 -i 0 -k MAC 
- -t 13.894496033 -s 1 -d 0 -p ACK -e 5 -c 2 -a 0 -i 0 -k MAC
h -t 13.894496033 -s 1 -d 0 -p ACK -e 5 -c 2 -a 0 -i 0 -k MAC
r -t 13.894848067 -s 0 -d 0 -p ACK -e 5 -c 2 -a 0 -i 0 -k MAC
n -t 13.895488034 -s 1 -S DLABEL -l [0] -L ""
+ -t 14.796032000 -s 0 -d -1 -p BCN -e 12 -c 2 -a 34 -i 0 -k MAC 
- -t 14.796032000 -s 0 -d -1 -p BCN -e 12 -c 2 -a 34 -i 0 -k MAC
h -t 14.796032000 -s 0 -d -1 -p BCN -e 12 -c 2 -a 34 -i 0 -k MAC -R 15.00 -D 0.00
r -t 14.796608033 -s 3 -d -1 -p BCN -e 12 -c 2 -a 34 -i 0 -k MAC
r -t 14.796608033 -s 6 -d -1 -p BCN -e 12 -c 2 -a 34 -i 0 -k MAC
r -t 14.796608033 -s 1 -d -1 -p BCN -e 12 -c 2 -a 34 -i 0 -k MAC
r -t 14.796608033 -s 4 -d -1 -p BCN -e 12 -c 2 -a 34 -i 0 -k MAC
r -t 14.796608033 -s 2 -d -1 -p BCN -e 12 -c 2 -a 34 -i 0 -k MAC
r -t 14.796608033 -s 5 -d -1 -p BCN -e 12 -c 2 -a 34 -i 0 -k MAC
+ -t 15.779072000 -s 0 -d -1 -p BCN -e 12 -c 2 -a 34 -i 0 -k MAC 
- -t 15.779072000 -s 0 -d -1 -p BCN -e 12 -c 2 -a 34 -i 0 -k MAC
h -t 15.779072000 -s 0 -d -1 -p BCN -e 12 -c 2 -a 34 -i 0 -k MAC -R 15.00 -D 0.00
r -t 15.779648033 -s 3 -d -1 -p BCN -e 12 -c 2 -a 34 -i 0 -k MAC
r -t 15.779648033 -s 6 -d -1 -p BCN -e 12 -c 2 -a 34 -i 0 -k MAC
r -t 15.779648033 -s 1 -d -1 -p BCN -e 12 -c 2 -a 34 -i 0 -k MAC
r -t 15.779648033 -s 4 -d -1 -p BCN -e 12 -c 2 -a 34 -i 0 -k MAC
r -t 15.779648033 -s 2 -d -1 -p BCN -e 12 -c 2 -a 34 -i 0 -k MAC
r -t 15.779648033 -s 5 -d -1 -p BCN -e 12 -c 2 -a 34 -i 0 -k MAC
+ -t 16.762112000 -s 0 -d -1 -p BCN -e 12 -c 2 -a 34 -i 0 -k MAC 
- -t 16.762112000 -s 0 -d -1 -p BCN -e 12 -c 2 -a 34 -i 0 -k MAC
h -t 16.762112000 -s 0 -d -1 -p BCN -e 12 -c 2 -a 34 -i 0 -k MAC -R 15.00 -D 0.00
r -t 16.762688033 -s 3 -d -1 -p BCN -e 12 -c 2 -a 34 -i 0 -k MAC
r -t 16.762688033 -s 6 -d -1 -p BCN -e 12 -c 2 -a 34 -i 0 -k MAC
r -t 16.762688033 -s 1 -d -1 -p BCN -e 12 -c 2 -a 34 -i 0 -k MAC
r -t 16.762688033 -s 4 -d -1 -p BCN -e 12 -c 2 -a 34 -i 0 -k MAC
r -t 16.762688033 -s 2 -d -1 -p BCN -e 12 -c 2 -a 34 -i 0 -k MAC
r -t 16.762688033 -s 5 -d -1 -p BCN -e 12 -c 2 -a 34 -i 0 -k MAC
+ -t 16.764032000 -s 0 -d -1 -p ARP -e 35 -c 2 -a 33 -i 0 -k MAC 
- -t 16.764032000 -s 0 -d -1 -p ARP -e 35 -c 2 -a 33 -i 0 -k MAC
h -t 16.764032000 -s 0 -d -1 -p ARP -e 35 -c 2 -a 33 -i 0 -k MAC -R 15.00 -D 0.00
+ -t 16.765632033 -s 3 -d 0 -p ACK -e 5 -c 2 -a 0 -i 0 -k MAC 
- -t 16.765632033 -s 3 -d 0 -p ACK -e 5 -c 2 -a 0 -i 0 -k MAC
h -t 16.765632033 -s 3 -d 0 -p ACK -e 5 -c 2 -a 0 -i 0 -k MAC
r -t 16.765984067 -s 0 -d 0 -p ACK -e 5 -c 2 -a 0 -i 0 -k MAC
r -t 16.766624033 -s 3 -d -1 -p ARP -e 28 -c 2 -a 33 -i 0 -k MAC
+ -t 16.768832000 -s 0 -d -1 -p AODV -e 55 -c 2 -a 32 -i 0 -k MAC 
- -t 16.768832000 -s 0 -d -1 -p AODV -e 55 -c 2 -a 32 -i 0 -k MAC
h -t 16.768832000 -s 0 -d -1 -p AODV -e 55 -c 2 -a 32 -i 0 -k MAC -R 15.00 -D 0.00
+ -t 16.768832033 -s 3 -d 0 -p AODV -e 51 -c 2 -a 32 -i 0 -k MAC 
- -t 16.768832033 -s 3 -d 0 -p AODV -e 51 -c 2 -a 32 -i 0 -k MAC
h -t 16.768832033 -s 3 -d 0 -p AODV -e 51 -c 2 -a 32 -i 0 -k MAC
d -t 16.770784033 -s 4 -d -1 -p AODV -e 55 -c 2 -a 32 -i 0 -k MAC
d -t 16.770784033 -s 2 -d -1 -p AODV -e 55 -c 2 -a 32 -i 0 -k MAC
r -t 16.771424033 -s 6 -d -1 -p AODV -e 48 -c 2 -a 32 -i 0 -k MAC
r -t 16.771424033 -s 1 -d -1 -p AODV -e 48 -c 2 -a 32 -i 0 -k MAC
r -t 16.771424033 -s 5 -d -1 -p AODV -e 48 -c 2 -a 32 -i 0 -k MAC
+ -t 16.772672000 -s 0 -d -1 -p AODV -e 55 -c 2 -a 32 -i 0 -k MAC 
- -t 16.772672000 -s 0 -d -1 -p AODV -e 55 -c 2 -a 32 -i 0 -k MAC
h -t 16.772672000 -s 0 -d -1 -p AODV -e 55 -c 2 -a 32 -i 0 -k MAC -R 15.00 -D 0.00
r -t 16.775264033 -s 3 -d -1 -p AODV -e 48 -c 2 -a 32 -i 0 -k MAC
r -t 16.775264033 -s 6 -d -1 -p AODV -e 48 -c 2 -a 32 -i 0 -k MAC
r -t 16.775264033 -s 1 -d -1 -p AODV -e 48 -c 2 -a 32 -i 0 -k MAC
r -t 16.775264033 -s 4 -d -1 -p AODV -e 48 -c 2 -a 32 -i 0 -k MAC
r -t 16.775264033 -s 2 -d -1 -p AODV -e 48 -c 2 -a 32 -i 0 -k MAC
r -t 16.775264033 -s 5 -d -1 -p AODV -e 48 -c 2 -a 32 -i 0 -k MAC
+ -t 16.783232033 -s 2 -d -1 -p AODV -e 55 -c 2 -a 32 -i 0 -k MAC 
- -t 16.783232033 -s 2 -d -1 -p AODV -e 55 -c 2 -a 32 -i 0 -k MAC
h -t 16.783232033 -s 2 -d -1 -p AODV -e 55 -c 2 -a 32 -i 0 -k MAC -R 15.00 -D 0.00
+ -t 16.785792033 -s 4 -d -1 -p AODV -e 55 -c 2 -a 32 -i 0 -k MAC 
- -t 16.785792033 -s 4 -d -1 -p AODV -e 55 -c 2 -a 32 -i 0 -k MAC
h -t 16.785792033 -s 4 -d -1 -p AODV -e 55 -c 2 -a 32 -i 0 -k MAC -R 15.00 -D 0.00
r -t 16.785824067 -s 0 -d -1 -p AODV -e 48 -c 2 -a 32 -i 0 -k MAC
r -t 16.785824067 -s 3 -d -1 -p AODV -e 48 -c 2 -a 32 -i 0 -k MAC
r -t 16.785824067 -s 1 -d -1 -p AODV -e 48 -c 2 -a 32 -i 0 -k MAC
r -t 16.788384067 -s 0 -d -1 -p AODV -e 48 -c 2 -a 32 -i 0 -k MAC
r -t 16.788384067 -s 3 -d -1 -p AODV -e 48 -c 2 -a 32 -i 0 -k MAC
r -t 16.788384067 -s 5 -d -1 -p AODV -e 48 -c 2 -a 32 -i 0 -k MAC
+ -t 17.745152000 -s 0 -d -1 -p BCN -e 12 -c 2 -a 34 -i 0 -k MAC 
- -t 17.745152000 -s 0 -d -1 -p BCN -e 12 -c 2 -a 34 -i 0 -k MAC
h -t 17.745152000 -s 0 -d -1 -p BCN -e 12 -c 2 -a 34 -i 0 -k MAC -R 15.00 -D 0.00
r -t 17.745728033 -s 3 -d -1 -p BCN -e 12 -c 2 -a 34 -i 0 -k MAC
r -t 17.745728033 -s 6 -d -1 -p BCN -e 12 -c 2 -a 34 -i 0 -k MAC
r -t 17.745728033 -s 1 -d -1 -p BCN -e 12 -c 2 -a 34 -i 0 -k MAC
r -t 17.745728033 -s 4 -d -1 -p BCN -e 12 -c 2 -a 34 -i 0 -k MAC
r -t 17.745728033 -s 2 -d -1 -p BCN -e 12 -c 2 -a 34 -i 0 -k MAC
r -t 17.745728033 -s 5 -d -1 -p BCN -e 12 -c 2 -a 34 -i 0 -k MAC
+ -t 17.746432000 -s 0 -d -1 -p AODV -e 55 -c 2 -a 32 -i 0 -k MAC 
- -t 17.746432000 -s 0 -d -1 -p AODV -e 55 -c 2 -a 32 -i 0 -k MAC
h -t 17.746432000 -s 0 -d -1 -p AODV -e 55 -c 2 -a 32 -i 0 -k MAC -R 15.00 -D 0.00
+ -t 17.746432033 -s 3 -d 0 -p AODV -e 51 -c 2 -a 32 -i 0 -k MAC 
- -t 17.746432033 -s 3 -d 0 -p AODV -e 51 -c 2 -a 32 -i 0 -k MAC
h -t 17.746432033 -s 3 -d 0 -p AODV -e 51 -c 2 -a 32 -i 0 -k MAC
+ -t 17.746432033 -s 6 -d -1 -p AODV -e 55 -c 2 -a 32 -i 0 -k MAC 