s -t 0.000640000 -Hs 0 -Hd -1 -Ni 0 -Nx 25.00 -Ny 25.00 -Nz 0.00 -Ne 0.999904 -Nl MAC -Nw --- -Ma 0 -Md ffffffff -Ms 0 -Mt 0 
N -t 0.000640 -n 3 -e 0.999866
N -t 0.000640 -n 6 -e 0.999866
N -t 0.000640 -n 1 -e 0.999866
N -t 0.000640 -n 4 -e 0.999866
N -t 0.000640 -n 2 -e 0.999866
N -t 0.000640 -n 5 -e 0.999866
r -t 0.001088033 -Hs 3 -Hd -1 -Ni 3 -Nx 19.99 -Ny 33.66 -Nz 0.00 -Ne 0.999866 -Nl MAC -Nw --- -Ma 0 -Md ffffffff -Ms 0 -Mt 0 
r -t 0.001088033 -Hs 6 -Hd -1 -Ni 6 -Nx 30.02 -Ny 16.35 -Nz 0.00 -Ne 0.999866 -Nl MAC -Nw --- -Ma 0 -Md ffffffff -Ms 0 -Mt 0 
r -t 0.001088033 -Hs 1 -Hd -1 -Ni 1 -Nx 35.00 -Ny 25.00 -Nz 0.00 -Ne 0.999866 -Nl MAC -Nw --- -Ma 0 -Md ffffffff -Ms 0 -Mt 0 
r -t 0.001088033 -Hs 4 -Hd -1 -Ni 4 -Nx 15.00 -Ny 24.99 -Nz 0.00 -Ne 0.999866 -Nl MAC -Nw --- -Ma 0 -Md ffffffff -Ms 0 -Mt 0 
r -t 0.001088033 -Hs 2 -Hd -1 -Ni 2 -Nx 30.00 -Ny 33.66 -Nz 0.00 -Ne 0.999866 -Nl MAC -Nw --- -Ma 0 -Md ffffffff -Ms 0 -Mt 0 
r -t 0.001088033 -Hs 5 -Hd -1 -Ni 5 -Nx 20.01 -Ny 16.33 -Nz 0.00 -Ne 0.999866 -Nl MAC -Nw --- -Ma 0 -Md ffffffff -Ms 0 -Mt 0 
s -t 0.500320000 -Hs 1 -Hd -1 -Ni 1 -Nx 35.00 -Ny 25.00 -Nz 0.00 -Ne 0.999770 -Nl MAC -Nw --- -Ma 0 -Md ffffffff -Ms 1 -Mt 0 
N -t 0.500320 -n 6 -e 0.999731
N -t 0.500320 -n 0 -e 0.999635
N -t 0.500320 -n 2 -e 0.999731
r -t 0.500768033 -Hs 6 -Hd -1 -Ni 6 -Nx 30.02 -Ny 16.35 -Nz 0.00 -Ne 0.999731 -Nl MAC -Nw --- -Ma 0 -Md ffffffff -Ms 1 -Mt 0 
d -t 0.500768033 -Hs 0 -Hd -1 -Ni 0 -Nx 25.00 -Ny 25.00 -Nz 0.00 -Ne 0.999635 -Nl MAC -Nw APS -Ma 0 -Md ffffffff -Ms 1 -Mt 0 
r -t 0.500768033 -Hs 2 -Hd -1 -Ni 2 -Nx 30.00 -Ny 33.66 -Nz 0.00 -Ne 0.999731 -Nl MAC -Nw --- -Ma 0 -Md ffffffff -Ms 1 -Mt 0 
s -t 1.500960000 -Hs 2 -Hd -1 -Ni 2 -Nx 30.00 -Ny 33.66 -Nz 0.00 -Ne 0.999635 -Nl MAC -Nw --- -Ma 0 -Md ffffffff -Ms 2 -Mt 0 
N -t 1.500960 -n 0 -e 0.999501
N -t 1.500960 -n 3 -e 0.999731
N -t 1.500960 -n 1 -e 0.999501
d -t 1.501408033 -Hs 0 -Hd -1 -Ni 0 -Nx 25.00 -Ny 25.00 -Nz 0.00 -Ne 0.999501 -Nl MAC -Nw APS -Ma 0 -Md ffffffff -Ms 2 -Mt 0 
r -t 1.501408033 -Hs 3 -Hd -1 -Ni 3 -Nx 19.99 -Ny 33.66 -Nz 0.00 -Ne 0.999731 -Nl MAC -Nw --- -Ma 0 -Md ffffffff -Ms 2 -Mt 0 
d -t 1.501408033 -Hs 1 -Hd -1 -Ni 1 -Nx 35.00 -Ny 25.00 -Nz 0.00 -Ne 0.999501 -Nl MAC -Nw APS -Ma 0 -Md ffffffff -Ms 2 -Mt 0 
s -t 1.984960000 -Hs 0 -Hd -1 -Ni 0 -Nx 25.00 -Ny 25.00 -Nz 0.00 -Ne 0.999405 -Nl MAC -Nw --- -Ma 0 -Md ffffffff -Ms 0 -Mt 0 
N -t 1.984960 -n 3 -e 0.999597
N -t 1.984960 -n 6 -e 0.999597
N -t 1.984960 -n 1 -e 0.999366
N -t 1.984960 -n 4 -e 0.999731
N -t 1.984960 -n 2 -e 0.999366
N -t 1.984960 -n 5 -e 0.999731
s -t 2.500640000 -Hs 3 -Hd -1 -Ni 3 -Nx 19.99 -Ny 33.66 -Nz 0.00 -Ne 0.999501 -Nl MAC -Nw --- -Ma 0 -Md ffffffff -Ms 3 -Mt 0 
N -t 2.500640 -n 0 -e 0.999136
N -t 2.500640 -n 4 -e 0.999597
N -t 2.500640 -n 2 -e 0.999232
r -t 2.501088033 -Hs 4 -Hd -1 -Ni 4 -Nx 15.00 -Ny 24.99 -Nz 0.00 -Ne 0.999597 -Nl MAC -Nw --- -Ma 0 -Md ffffffff -Ms 3 -Mt 0 
d -t 2.501088033 -Hs 2 -Hd -1 -Ni 2 -Nx 30.00 -Ny 33.66 -Nz 0.00 -Ne 0.999232 -Nl MAC -Nw APS -Ma 0 -Md ffffffff -Ms 3 -Mt 0 
s -t 3.500640000 -Hs 4 -Hd -1 -Ni 4 -Nx 15.00 -Ny 24.99 -Nz 0.00 -Ne 0.999501 -Nl MAC -Nw --- -Ma 0 -Md ffffffff -Ms 4 -Mt 0 
N -t 3.500640 -n 0 -e 0.999002
N -t 3.500640 -n 3 -e 0.999232
N -t 3.500640 -n 5 -e 0.999597
d -t 3.501088033 -Hs 3 -Hd -1 -Ni 3 -Nx 19.99 -Ny 33.66 -Nz 0.00 -Ne 0.999232 -Nl MAC -Nw APS -Ma 0 -Md ffffffff -Ms 4 -Mt 0 
r -t 3.501088033 -Hs 5 -Hd -1 -Ni 5 -Nx 20.01 -Ny 16.33 -Nz 0.00 -Ne 0.999597 -Nl MAC -Nw --- -Ma 0 -Md ffffffff -Ms 4 -Mt 0 
s -t 3.969280000 -Hs 0 -Hd -1 -Ni 0 -Nx 25.00 -Ny 25.00 -Nz 0.00 -Ne 0.998906 -Nl MAC -Nw --- -Ma 0 -Md ffffffff -Ms 0 -Mt 0 
N -t 3.969280 -n 3 -e 0.999098
N -t 3.969280 -n 6 -e 0.999462
N -t 3.969280 -n 1 -e 0.999232
N -t 3.969280 -n 4 -e 0.999232
N -t 3.969280 -n 2 -e 0.999098
N -t 3.969280 -n 5 -e 0.999462
s -t 4.450400000 -Hs 1 -Hd -1 -Ni 1 -Nx 35.00 -Ny 25.00 -Nz 0.00 -Ne 0.999136 -Nl MAC -Nw --- -Ma 0 -Md ffffffff -Ms 1 -Mt 0 
N -t 4.450400 -n 6 -e 0.999328
N -t 4.450400 -n 0 -e 0.998637
N -t 4.450400 -n 2 -e 0.998963
s -t 4.502560000 -Hs 5 -Hd -1 -Ni 5 -Nx 20.01 -Ny 16.33 -Nz 0.00 -Ne 0.999366 -Nl MAC -Nw --- -Ma 0 -Md ffffffff -Ms 5 -Mt 0 
N -t 4.502560 -n 0 -e 0.998502
N -t 4.502560 -n 6 -e 0.999194
N -t 4.502560 -n 4 -e 0.999098
r -t 4.503008033 -Hs 6 -Hd -1 -Ni 6 -Nx 30.02 -Ny 16.35 -Nz 0.00 -Ne 0.999194 -Nl MAC -Nw --- -Ma 0 -Md ffffffff -Ms 5 -Mt 0 
d -t 4.503008033 -Hs 4 -Hd -1 -Ni 4 -Nx 15.00 -Ny 24.99 -Nz 0.00 -Ne 0.999098 -Nl MAC -Nw APS -Ma 0 -Md ffffffff -Ms 5 -Mt 0 
s -t 5.449760000 -Hs 2 -Hd -1 -Ni 2 -Nx 30.00 -Ny 33.66 -Nz 0.00 -Ne 0.998867 -Nl MAC -Nw --- -Ma 0 -Md ffffffff -Ms 2 -Mt 0 
N -t 5.449760 -n 0 -e 0.998368
N -t 5.449760 -n 3 -e 0.998963
N -t 5.449760 -n 1 -e 0.998867
d -t 5.450208033 -Hs 1 -Hd -1 -Ni 1 -Nx 35.00 -Ny 25.00 -Nz 0.00 -Ne 0.998867 -Nl MAC -Nw APS -Ma 0 -Md ffffffff -Ms 2 -Mt 0 
s -t 5.501920000 -Hs 6 -Hd -1 -Ni 6 -Nx 30.02 -Ny 16.35 -Nz 0.00 -Ne 0.999098 -Nl MAC -Nw --- -Ma 0 -Md ffffffff -Ms 6 -Mt 0 
N -t 5.501920 -n 1 -e 0.998733
N -t 5.501920 -n 0 -e 0.998234
N -t 5.501920 -n 5 -e 0.999098
d -t 5.502368033 -Hs 5 -Hd -1 -Ni 5 -Nx 20.01 -Ny 16.33 -Nz 0.00 -Ne 0.999098 -Nl MAC -Nw APS -Ma 0 -Md ffffffff -Ms 6 -Mt 0 
s -t 5.951552000 -Hs 0 -Hd -1 -Ni 0 -Nx 25.00 -Ny 25.00 -Nz 0.00 -Ne 0.998234 -Nl MAC -Nw --- -Ma 0 -Md ffffffff -Ms 0 -Mt 0 
N -t 5.951552 -n 3 -e 0.998790
N -t 5.951552 -n 6 -e 0.998790
N -t 5.951552 -n 1 -e 0.998560
N -t 5.951552 -n 4 -e 0.998925
N -t 5.951552 -n 2 -e 0.998560
N -t 5.951552 -n 5 -e 0.998925
s -t 6.449760000 -Hs 3 -Hd -1 -Ni 3 -Nx 19.99 -Ny 33.66 -Nz 0.00 -Ne 0.998694 -Nl MAC -Nw --- -Ma 0 -Md ffffffff -Ms 3 -Mt 0 
N -t 6.449760 -n 0 -e 0.997926
N -t 6.449760 -n 4 -e 0.998790
N -t 6.449760 -n 2 -e 0.998426
d -t 6.450208033 -Hs 2 -Hd -1 -Ni 2 -Nx 30.00 -Ny 33.66 -Nz 0.00 -Ne 0.998426 -Nl MAC -Nw APS -Ma 0 -Md ffffffff -Ms 3 -Mt 0 
v 7 eval {set sim_annotation {(at 7.0) ftp traffic from node 0 to node 1}}
s -t 7.002112000 -Hs 0 -Hd -2 -Ni 0 -Nx 25.00 -Ny 25.00 -Nz 0.00 -Ne 0.997734 -Nl MAC -Nw --- -Ma 0 -Md ffffffff -Ms 0 -Mt 800 -Is 0.255 -Id -1.255 -It AODV -Il 55 -If 0 -Ii 0 -Iv 30 -P aodv -Pt 0x2 -Ph 1 -Pb 1 -Pd 1 -Pds 0 -Ps 0 -Pss 4 -Pc REQUEST 
N -t 7.002112 -n 3 -e 0.997974
N -t 7.002112 -n 6 -e 0.998205
N -t 7.002112 -n 1 -e 0.997974
N -t 7.002112 -n 4 -e 0.998205
N -t 7.002112 -n 2 -e 0.997840
N -t 7.002112 -n 5 -e 0.998339
d -t 7.004064033 -Hs 6 -Hd -2 -Ni 6 -Nx 30.02 -Ny 16.35 -Nz 0.00 -Ne 0.998205 -Nl MAC -Nw APS -Ma 0 -Md ffffffff -Ms 0 -Mt 800 -Is 0.255 -Id -1.255 -It AODV -Il 55 -If 0 -Ii 0 -Iv 30 -P aodv -Pt 0x2 -Ph 1 -Pb 1 -Pd 1 -Pds 0 -Ps 0 -Pss 4 -Pc REQUEST 
d -t 7.004064033 -Hs 4 -Hd -2 -Ni 4 -Nx 15.00 -Ny 24.99 -Nz 0.00 -Ne 0.998205 -Nl MAC -Nw APS -Ma 0 -Md ffffffff -Ms 0 -Mt 800 -Is 0.255 -Id -1.255 -It AODV -Il 55 -If 0 -Ii 0 -Iv 30 -P aodv -Pt 0x2 -Ph 1 -Pb 1 -Pd 1 -Pds 0 -Ps 0 -Pss 4 -Pc REQUEST 
d -t 7.004064033 -Hs 5 -Hd -2 -Ni 5 -Nx 20.01 -Ny 16.33 -Nz 0.00 -Ne 0.998339 -Nl MAC -Nw APS -Ma 0 -Md ffffffff -Ms 0 -Mt 800 -Is 0.255 -Id -1.255 -It AODV -Il 55 -If 0 -Ii 0 -Iv 30 -P aodv -Pt 0x2 -Ph 1 -Pb 1 -Pd 1 -Pds 0 -Ps 0 -Pss 4 -Pc REQUEST 
v 7.2000000000000002 eval {set sim_annotation {(at 7.2) ftp traffic from node 0 to node 3}}
s -t 7.201792000 -Hs 0 -Hd -2 -Ni 0 -Nx 25.00 -Ny 25.00 -Nz 0.00 -Ne 0.996957 -Nl MAC -Nw --- -Ma 0 -Md ffffffff -Ms 0 -Mt 800 -Is 0.255 -Id -1.255 -It AODV -Il 55 -If 0 -Ii 0 -Iv 30 -P aodv -Pt 0x2 -Ph 1 -Pb 2 -Pd 3 -Pds 0 -Ps 0 -Pss 6 -Pc REQUEST 
N -t 7.201792 -n 3 -e 0.997389
N -t 7.201792 -n 6 -e 0.997619
N -t 7.201792 -n 1 -e 0.997389
N -t 7.201792 -n 4 -e 0.997619
N -t 7.201792 -n 2 -e 0.997254
N -t 7.201792 -n 5 -e 0.997754
d -t 7.203744033 -Hs 6 -Hd -2 -Ni 6 -Nx 30.02 -Ny 16.35 -Nz 0.00 -Ne 0.997619 -Nl MAC -Nw APS -Ma 0 -Md ffffffff -Ms 0 -Mt 800 -Is 0.255 -Id -1.255 -It AODV -Il 55 -If 0 -Ii 0 -Iv 30 -P aodv -Pt 0x2 -Ph 1 -Pb 2 -Pd 3 -Pds 0 -Ps 0 -Pss 6 -Pc REQUEST 
d -t 7.203744033 -Hs 4 -Hd -2 -Ni 4 -Nx 15.00 -Ny 24.99 -Nz 0.00 -Ne 0.997619 -Nl MAC -Nw APS -Ma 0 -Md ffffffff -Ms 0 -Mt 800 -Is 0.255 -Id -1.255 -It AODV -Il 55 -If 0 -Ii 0 -Iv 30 -P aodv -Pt 0x2 -Ph 1 -Pb 2 -Pd 3 -Pds 0 -Ps 0 -Pss 6 -Pc REQUEST 
d -t 7.203744033 -Hs 5 -Hd -2 -Ni 5 -Nx 20.01 -Ny 16.33 -Nz 0.00 -Ne 0.997754 -Nl MAC -Nw APS -Ma 0 -Md ffffffff -Ms 0 -Mt 800 -Is 0.255 -Id -1.255 -It AODV -Il 55 -If 0 -Ii 0 -Iv 30 -P aodv -Pt 0x2 -Ph 1 -Pb 2 -Pd 3 -Pds 0 -Ps 0 -Pss 6 -Pc REQUEST 
v 7.4000000000000004 eval {set sim_annotation {(at 7.4) ftp traffic from node 0 to node 5}}
s -t 7.401792000 -Hs 0 -Hd -2 -Ni 0 -Nx 25.00 -Ny 25.00 -Nz 0.00 -Ne 0.996179 -Nl MAC -Nw --- -Ma 0 -Md ffffffff -Ms 0 -Mt 800 -Is 0.255 -Id -1.255 -It AODV -Il 55 -If 0 -Ii 0 -Iv 30 -P aodv -Pt 0x2 -Ph 1 -Pb 3 -Pd 5 -Pds 0 -Ps 0 -Pss 8 -Pc REQUEST 
N -t 7.401792 -n 3 -e 0.996803
N -t 7.401792 -n 6 -e 0.997034
N -t 7.401792 -n 1 -e 0.996803
N -t 7.401792 -n 4 -e 0.997034
N -t 7.401792 -n 2 -e 0.996669
N -t 7.401792 -n 5 -e 0.997168
d -t 7.403744033 -Hs 6 -Hd -2 -Ni 6 -Nx 30.02 -Ny 16.35 -Nz 0.00 -Ne 0.997034 -Nl MAC -Nw APS -Ma 0 -Md ffffffff -Ms 0 -Mt 800 -Is 0.255 -Id -1.255 -It AODV -Il 55 -If 0 -Ii 0 -Iv 30 -P aodv -Pt 0x2 -Ph 1 -Pb 3 -Pd 5 -Pds 0 -Ps 0 -Pss 8 -Pc REQUEST 
d -t 7.403744033 -Hs 4 -Hd -2 -Ni 4 -Nx 15.00 -Ny 24.99 -Nz 0.00 -Ne 0.997034 -Nl MAC -Nw APS -Ma 0 -Md ffffffff -Ms 0 -Mt 800 -Is 0.255 -Id -1.255 -It AODV -Il 55 -If 0 -Ii 0 -Iv 30 -P aodv -Pt 0x2 -Ph 1 -Pb 3 -Pd 5 -Pds 0 -Ps 0 -Pss 8 -Pc REQUEST 
d -t 7.403744033 -Hs 5 -Hd -2 -Ni 5 -Nx 20.01 -Ny 16.33 -Nz 0.00 -Ne 0.997168 -Nl MAC -Nw APS -Ma 0 -Md ffffffff -Ms 0 -Mt 800 -Is 0.255 -Id -1.255 -It AODV -Il 55 -If 0 -Ii 0 -Iv 30 -P aodv -Pt 0x2 -Ph 1 -Pb 3 -Pd 5 -Pds 0 -Ps 0 -Pss 8 -Pc REQUEST 
s -t 7.450080000 -Hs 4 -Hd -1 -Ni 4 -Nx 15.00 -Ny 24.99 -Nz 0.00 -Ne 0.996938 -Nl MAC -Nw --- -Ma 0 -Md ffffffff -Ms 4 -Mt 0 
N -t 7.450080 -n 0 -e 0.995459
N -t 7.450080 -n 3 -e 0.996669
N -t 7.450080 -n 5 -e 0.997034
d -t 7.450528033 -Hs 3 -Hd -1 -Ni 3 -Nx 19.99 -Ny 33.66 -Nz 0.00 -Ne 0.996669 -Nl MAC -Nw APS -Ma 0 -Md ffffffff -Ms 4 -Mt 0 
s -t 7.917632000 -Hs 0 -Hd -1 -Ni 0 -Nx 25.00 -Ny 25.00 -Nz 0.00 -Ne 0.995459 -Nl MAC -Nw --- -Ma 0 -Md ffffffff -Ms 0 -Mt 0 
N -t 7.917632 -n 3 -e 0.996496
N -t 7.917632 -n 6 -e 0.996861
N -t 7.917632 -n 1 -e 0.996630
N -t 7.917632 -n 4 -e 0.996630
N -t 7.917632 -n 2 -e 0.996496
N -t 7.917632 -n 5 -e 0.996861
s -t 8.400480000 -Hs 1 -Hd -1 -Ni 1 -Nx 35.00 -Ny 25.00 -Nz 0.00 -Ne 0.996534 -Nl MAC -Nw --- -Ma 0 -Md ffffffff -Ms 1 -Mt 0 
N -t 8.400480 -n 6 -e 0.996726
N -t 8.400480 -n 0 -e 0.995152
N -t 8.400480 -n 2 -e 0.996362
s -t 8.452640000 -Hs 5 -Hd -1 -Ni 5 -Nx 20.01 -Ny 16.33 -Nz 0.00 -Ne 0.996765 -Nl MAC -Nw --- -Ma 0 -Md ffffffff -Ms 5 -Mt 0 
N -t 8.452640 -n 0 -e 0.995018
N -t 8.452640 -n 6 -e 0.996592
N -t 8.452640 -n 4 -e 0.996496
d -t 8.453088033 -Hs 4 -Hd -1 -Ni 4 -Nx 15.00 -Ny 24.99 -Nz 0.00 -Ne 0.996496 -Nl MAC -Nw APS -Ma 0 -Md ffffffff -Ms 5 -Mt 0 
s -t 9.001792000 -Hs 0 -Hd -2 -Ni 0 -Nx 25.00 -Ny 25.00 -Nz 0.00 -Ne 0.994826 -Nl MAC -Nw --- -Ma 0 -Md ffffffff -Ms 0 -Mt 800 -Is 0.255 -Id -1.255 -It AODV -Il 55 -If 0 -Ii 0 -Iv 30 -P aodv -Pt 0x2 -Ph 1 -Pb 4 -Pd 3 -Pds 0 -Ps 0 -Pss 10 -Pc REQUEST 
N -t 9.001792 -n 3 -e 0.995910
N -t 9.001792 -n 6 -e 0.996006
N -t 9.001792 -n 1 -e 0.995814
N -t 9.001792 -n 4 -e 0.995910
N -t 9.001792 -n 2 -e 0.995776
N -t 9.001792 -n 5 -e 0.996045
d -t 9.003744033 -Hs 6 -Hd -2 -Ni 6 -Nx 30.02 -Ny 16.35 -Nz 0.00 -Ne 0.996006 -Nl MAC -Nw APS -Ma 0 -Md ffffffff -Ms 0 -Mt 800 -Is 0.255 -Id -1.255 -It AODV -Il 55 -If 0 -Ii 0 -Iv 30 -P aodv -Pt 0x2 -Ph 1 -Pb 4 -Pd 3 -Pds 0 -Ps 0 -Pss 10 -Pc REQUEST 
s -t 9.005952000 -Hs 0 -Hd -2 -Ni 0 -Nx 25.00 -Ny 25.00 -Nz 0.00 -Ne 0.994048 -Nl MAC -Nw --- -Ma 0 -Md ffffffff -Ms 0 -Mt 800 -Is 0.255 -Id -1.255 -It AODV -Il 55 -If 0 -Ii 0 -Iv 30 -P aodv -Pt 0x2 -Ph 1 -Pb 5 -Pd 1 -Pds 0 -Ps 0 -Pss 12 -Pc REQUEST 
N -t 9.005952 -n 3 -e 0.995325
N -t 9.005952 -n 6 -e 0.995421
N -t 9.005952 -n 1 -e 0.995229
N -t 9.005952 -n 4 -e 0.995325
N -t 9.005952 -n 2 -e 0.995190
N -t 9.005952 -n 5 -e 0.995459
d -t 9.007904033 -Hs 6 -Hd -2 -Ni 6 -Nx 30.02 -Ny 16.35 -Nz 0.00 -Ne 0.995421 -Nl MAC -Nw APS -Ma 0 -Md ffffffff -Ms 0 -Mt 800 -Is 0.255 -Id -1.255 -It AODV -Il 55 -If 0 -Ii 0 -Iv 30 -P aodv -Pt 0x2 -Ph 1 -Pb 5 -Pd 1 -Pds 0 -Ps 0 -Pss 12 -Pc REQUEST 
s -t 9.398560000 -Hs 2 -Hd -1 -Ni 2 -Nx 30.00 -Ny 33.66 -Nz 0.00 -Ne 0.995094 -Nl MAC -Nw --- -Ma 0 -Md ffffffff -Ms 2 -Mt 0 
N -t 9.398560 -n 0 -e 0.993328
N -t 9.398560 -n 3 -e 0.995190
N -t 9.398560 -n 1 -e 0.995094
d -t 9.399008033 -Hs 1 -Hd -1 -Ni 1 -Nx 35.00 -Ny 25.00 -Nz 0.00 -Ne 0.995094 -Nl MAC -Nw APS -Ma 0 -Md ffffffff -Ms 2 -Mt 0 
s -t 9.450400000 -Hs 6 -Hd -1 -Ni 6 -Nx 30.02 -Ny 16.35 -Nz 0.00 -Ne 0.995325 -Nl MAC -Nw --- -Ma 0 -Md ffffffff -Ms 6 -Mt 0 
N -t 9.450400 -n 1 -e 0.994960
N -t 9.450400 -n 0 -e 0.993194
N -t 9.450400 -n 5 -e 0.995325
d -t 9.450848033 -Hs 5 -Hd -1 -Ni 5 -Nx 20.01 -Ny 16.33 -Nz 0.00 -Ne 0.995325 -Nl MAC -Nw APS -Ma 0 -Md ffffffff -Ms 6 -Mt 0 
s -t 9.502912000 -Hs 0 -Hd -2 -Ni 0 -Nx 25.00 -Ny 25.00 -Nz 0.00 -Ne 0.993002 -Nl MAC -Nw --- -Ma 0 -Md ffffffff -Ms 0 -Mt 800 -Is 0.255 -Id -1.255 -It AODV -Il 55 -If 0 -Ii 0 -Iv 30 -P aodv -Pt 0x2 -Ph 1 -Pb 6 -Pd 5 -Pds 0 -Ps 0 -Pss 14 -Pc REQUEST 
N -t 9.502912 -n 3 -e 0.994605
N -t 9.502912 -n 6 -e 0.994605
N -t 9.502912 -n 1 -e 0.994374
N -t 9.502912 -n 4 -e 0.994739
N -t 9.502912 -n 2 -e 0.994374
N -t 9.502912 -n 5 -e 0.994739
s -t 9.883712000 -Hs 0 -Hd -1 -Ni 0 -Nx 25.00 -Ny 25.00 -Nz 0.00 -Ne 0.992416 -Nl MAC -Nw --- -Ma 0 -Md ffffffff -Ms 0 -Mt 0 
N -t 9.883712 -n 3 -e 0.994432
N -t 9.883712 -n 6 -e 0.994432
N -t 9.883712 -n 1 -e 0.994202
N -t 9.883712 -n 4 -e 0.994566
N -t 9.883712 -n 2 -e 0.994202
N -t 9.883712 -n 5 -e 0.994566
s -t 10.398560000 -Hs 3 -Hd -1 -Ni 3 -Nx 19.99 -Ny 33.66 -Nz 0.00 -Ne 0.994336 -Nl MAC -Nw --- -Ma 0 -Md ffffffff -Ms 3 -Mt 0 
N -t 10.398560 -n 0 -e 0.992109
N -t 10.398560 -n 4 -e 0.994432
N -t 10.398560 -n 2 -e 0.994067
d -t 10.399008033 -Hs 2 -Hd -1 -Ni 2 -Nx 30.00 -Ny 33.66 -Nz 0.00 -Ne 0.994067 -Nl MAC -Nw APS -Ma 0 -Md ffffffff -Ms 3 -Mt 0 
s -t 11.400800000 -Hs 4 -Hd -1 -Ni 4 -Nx 15.00 -Ny 24.99 -Nz 0.00 -Ne 0.994336 -Nl MAC -Nw --- -Ma 0 -Md ffffffff -Ms 4 -Mt 0 
N -t 11.400800 -n 0 -e 0.991974
N -t 11.400800 -n 3 -e 0.994067
N -t 11.400800 -n 5 -e 0.994432
d -t 11.401248033 -Hs 3 -Hd -1 -Ni 3 -Nx 19.99 -Ny 33.66 -Nz 0.00 -Ne 0.994067 -Nl MAC -Nw APS -Ma 0 -Md ffffffff -Ms 4 -Mt 0 
s -t 11.849792000 -Hs 0 -Hd -1 -Ni 0 -Nx 25.00 -Ny 25.00 -Nz 0.00 -Ne 0.991974 -Nl MAC -Nw --- -Ma 0 -Md ffffffff -Ms 0 -Mt 0 
N -t 11.849792 -n 3 -e 0.993894
N -t 11.849792 -n 6 -e 0.994259
N -t 11.849792 -n 1 -e 0.994029
N -t 11.849792 -n 4 -e 0.994029
N -t 11.849792 -n 2 -e 0.993894
N -t 11.849792 -n 5 -e 0.994259
s -t 12.401760000 -Hs 5 -Hd -1 -Ni 5 -Nx 20.01 -Ny 16.33 -Nz 0.00 -Ne 0.994163 -Nl MAC -Nw --- -Ma 0 -Md ffffffff -Ms 5 -Mt 0 
N -t 12.401760 -n 0 -e 0.991667
N -t 12.401760 -n 6 -e 0.994125
N -t 12.401760 -n 4 -e 0.993894
d -t 12.402208033 -Hs 4 -Hd -1 -Ni 4 -Nx 15.00 -Ny 24.99 -Nz 0.00 -Ne 0.993894 -Nl MAC -Nw APS -Ma 0 -Md ffffffff -Ms 5 -Mt 0 
s -t 13.003072000 -Hs 0 -Hd -2 -Ni 0 -Nx 25.00 -Ny 25.00 -Nz 0.00 -Ne 0.991475 -Nl MAC -Nw --- -Ma 0 -Md ffffffff -Ms 0 -Mt 800 -Is 0.255 -Id -1.255 -It AODV -Il 55 -If 0 -Ii 0 -Iv 30 -P aodv -Pt 0x2 -Ph 1 -Pb 7 -Pd 3 -Pds 0 -Ps 0 -Pss 16 -Pc REQUEST 
N -t 13.003072 -n 3 -e 0.993309
N -t 13.003072 -n 6 -e 0.993539
N -t 13.003072 -n 1 -e 0.993443
N -t 13.003072 -n 4 -e 0.993309
N -t 13.003072 -n 2 -e 0.993309
N -t 13.003072 -n 5 -e 0.993443
s -t 13.006272000 -Hs 0 -Hd -2 -Ni 0 -Nx 25.00 -Ny 25.00 -Nz 0.00 -Ne 0.990698 -Nl MAC -Nw --- -Ma 0 -Md ffffffff -Ms 0 -Mt 800 -Is 0.255 -Id -1.255 -It AODV -Il 55 -If 0 -Ii 0 -Iv 30 -P aodv -Pt 0x2 -Ph 1 -Pb 8 -Pd 1 -Pds 0 -Ps 0 -Pss 18 -Pc REQUEST 
N -t 13.006272 -n 3 -e 0.992723
N -t 13.006272 -n 6 -e 0.992954
N -t 13.006272 -n 1 -e 0.992858
N -t 13.006272 -n 4 -e 0.992723
N -t 13.006272 -n 2 -e 0.992723
N -t 13.006272 -n 5 -e 0.992858
s -t 13.349280000 -Hs 1 -Hd -1 -Ni 1 -Nx 35.00 -Ny 25.00 -Nz 0.00 -Ne 0.992762 -Nl MAC -Nw --- -Ma 0 -Md ffffffff -Ms 1 -Mt 0 
N -t 13.349280 -n 6 -e 0.992819
N -t 13.349280 -n 0 -e 0.989978
N -t 13.349280 -n 2 -e 0.992589
r -t 13.349728033 -Hs 0 -Hd -1 -Ni 0 -Nx 25.00 -Ny 25.00 -Nz 0.00 -Ne 0.989978 -Nl MAC -Nw --- -Ma 0 -Md ffffffff -Ms 1 -Mt 0 
s -t 13.400160000 -Hs 6 -Hd -1 -Ni 6 -Nx 30.02 -Ny 16.35 -Nz 0.00 -Ne 0.992723 -Nl MAC -Nw --- -Ma 0 -Md ffffffff -Ms 6 -Mt 0 
N -t 13.400160 -n 1 -e 0.992493
N -t 13.400160 -n 0 -e 0.989843
N -t 13.400160 -n 5 -e 0.992723
d -t 13.400608033 -Hs 5 -Hd -1 -Ni 5 -Nx 20.01 -Ny 16.33 -Nz 0.00 -Ne 0.992723 -Nl MAC -Nw APS -Ma 0 -Md ffffffff -Ms 6 -Mt 0 
s -t 13.500672000 -Hs 0 -Hd -2 -Ni 0 -Nx 25.00 -Ny 25.00 -Nz 0.00 -Ne 0.989651 -Nl MAC -Nw --- -Ma 0 -Md ffffffff -Ms 0 -Mt 800 -Is 0.255 -Id -1.255 -It AODV -Il 55 -If 0 -Ii 0 -Iv 30 -P aodv -Pt 0x2 -Ph 1 -Pb 9 -Pd 5 -Pds 0 -Ps 0 -Pss 20 -Pc REQUEST 
N -t 13.500672 -n 3 -e 0.992138
N -t 13.500672 -n 6 -e 0.992003
N -t 13.500672 -n 1 -e 0.991907
N -t 13.500672 -n 4 -e 0.992138
N -t 13.500672 -n 2 -e 0.992003
N -t 13.500672 -n 5 -e 0.992138
d -t 13.502624033 -Hs 1 -Hd -2 -Ni 1 -Nx 35.00 -Ny 25.00 -Nz 0.00 -Ne 0.991907 -Nl MAC -Nw APS -Ma 0 -Md ffffffff -Ms 0 -Mt 800 -Is 0.255 -Id -1.255 -It AODV -Il 55 -If 0 -Ii 0 -Iv 30 -P aodv -Pt 0x2 -Ph 1 -Pb 9 -Pd 5 -Pds 0 -Ps 0 -Pss 20 -Pc REQUEST 
s -t 13.815872000 -Hs 0 -Hd -1 -Ni 0 -Nx 25.00 -Ny 25.00 -Nz 0.00 -Ne 0.989066 -Nl MAC -Nw --- -Ma 0 -Md ffffffff -Ms 0 -Mt 0 
N -t 13.815872 -n 3 -e 0.991965
N -t 13.815872 -n 6 -e 0.991830
N -t 13.815872 -n 1 -e 0.991734
N -t 13.815872 -n 4 -e 0.991965
N -t 13.815872 -n 2 -e 0.991830
N -t 13.815872 -n 5 -e 0.991965
s -t 14.348320000 -Hs 2 -Hd -1 -Ni 2 -Nx 30.00 -Ny 33.66 -Nz 0.00 -Ne 0.991734 -Nl MAC -Nw --- -Ma 0 -Md ffffffff -Ms 2 -Mt 0 
N -t 14.348320 -n 0 -e 0.988758
N -t 14.348320 -n 3 -e 0.991830
N -t 14.348320 -n 1 -e 0.991600
r -t 14.348768033 -Hs 0 -Hd -1 -Ni 0 -Nx 25.00 -Ny 25.00 -Nz 0.00 -Ne 0.988758 -Nl MAC -Nw --- -Ma 0 -Md ffffffff -Ms 2 -Mt 0 
r -t 14.348768033 -Hs 3 -Hd -1 -Ni 3 -Nx 19.99 -Ny 33.66 -Nz 0.00 -Ne 0.991638 -Nl MAC -Nw --- -Ma 0 -Md ffffffff -Ms 2 -Mt 0 
d -t 14.348768033 -Hs 1 -Hd -1 -Ni 1 -Nx 35.00 -Ny 25.00 -Nz 0.00 -Ne 0.991600 -Nl MAC -Nw APS -Ma 0 -Md ffffffff -Ms 2 -Mt 0 
s -t 14.349088000 -Hs 3 -Hd 0 -Ni 3 -Nx 19.99 -Ny 33.66 -Nz 0.00 -Ne 0.991446 -Nl MAC -Nw --- -Ma 0 -Md 0 -Ms 3 -Mt 0 
N -t 14.349088 -n 0 -e 0.988538
N -t 14.349088 -n 4 -e 0.991744
N -t 14.349088 -n 2 -e 0.991379
r -t 14.349824033 -Hs 0 -Hd 0 -Ni 0 -Nx 25.00 -Ny 25.00 -Nz 0.00 -Ne 0.988538 -Nl MAC -Nw --- -Ma 0 -Md 0 -Ms 3 -Mt 0 
s -t 14.350272000 -Hs 0 -Hd 3 -Ni 0 -Nx 25.00 -Ny 25.00 -Nz 0.00 -Ne 0.988538 -Nl MAC -Nw --- -Ma 0 -Md 3 -Ms 0 -Mt 0 
N -t 14.350272 -n 3 -e 0.991120
N -t 14.350272 -n 6 -e 0.991725
N -t 14.350272 -n 1 -e 0.991494
N -t 14.350272 -n 4 -e 0.991638
N -t 14.350272 -n 2 -e 0.991274
N -t 14.350272 -n 5 -e 0.991859
r -t 14.350624033 -Hs 3 -Hd 3 -Ni 3 -Nx 19.99 -Ny 33.66 -Nz 0.00 -Ne 0.991120 -Nl MAC -Nw --- -Ma 0 -Md 3 -Ms 0 -Mt 0 
s -t 14.842144033 -Hs 3 -Hd 0 -Ni 3 -Nx 19.99 -Ny 33.66 -Nz 0.00 -Ne 0.991120 -Nl MAC -Nw --- -Ma 0 -Md 0 -Ms 3 -Mt 0 
N -t 14.842144 -n 0 -e 0.988221
N -t 14.842144 -n 4 -e 0.991427
N -t 14.842144 -n 2 -e 0.991062
r -t 14.842848067 -Hs 0 -Hd 0 -Ni 0 -Nx 25.00 -Ny 25.00 -Nz 0.00 -Ne 0.988221 -Nl MAC -Nw --- -Ma 0 -Md 0 -Ms 3 -Mt 0 
s -t 14.843072000 -Hs 0 -Hd 3 -Ni 0 -Nx 25.00 -Ny 25.00 -Nz 0.00 -Ne 0.988221 -Nl MAC -Nw --- -Ma 0 -Md 3 -Ms 0 -Mt 0 
N -t 14.843072 -n 3 -e 0.990803
N -t 14.843072 -n 6 -e 0.991619
N -t 14.843072 -n 1 -e 0.991389
N -t 14.843072 -n 4 -e 0.991322
N -t 14.843072 -n 2 -e 0.990957
N -t 14.843072 -n 5 -e 0.991754
r -t 14.843424033 -Hs 3 -Hd 3 -Ni 3 -Nx 19.99 -Ny 33.66 -Nz 0.00 -Ne 0.990803 -Nl MAC -Nw --- -Ma 0 -Md 3 -Ms 0 -Mt 0 
s -t 14.843712000 -Hs 0 -Hd 3 -Ni 0 -Nx 25.00 -Ny 25.00 -Nz 0.00 -Ne 0.988115 -Nl MAC -Nw --- -Ma 0 -Md 3 -Ms 0 -Mt 0 
N -t 14.843712 -n 3 -e 0.990506
N -t 14.843712 -n 6 -e 0.991322
N -t 14.843712 -n 1 -e 0.991091
N -t 14.843712 -n 4 -e 0.991024
N -t 14.843712 -n 2 -e 0.990659
N -t 14.843712 -n 5 -e 0.991456
r -t 14.844704033 -Hs 3 -Hd 3 -Ni 3 -Nx 19.99 -Ny 33.66 -Nz 0.00 -Ne 0.990506 -Nl MAC -Nw --- -Ma 0 -Md 3 -Ms 0 -Mt 0 
s -t 14.844896033 -Hs 3 -Hd 0 -Ni 3 -Nx 19.99 -Ny 33.66 -Nz 0.00 -Ne 0.990506 -Nl MAC -Nw --- -Ma 0 -Md 0 -Ms 3 -Mt 0 
N -t 14.844896 -n 0 -e 0.987712
N -t 14.844896 -n 4 -e 0.990918
N -t 14.844896 -n 2 -e 0.990554
r -t 14.845248067 -Hs 0 -Hd 0 -Ni 0 -Nx 25.00 -Ny 25.00 -Nz 0.00 -Ne 0.987712 -Nl MAC -Nw --- -Ma 0 -Md 0 -Ms 3 -Mt 0 
s -t 15.349600000 -Hs 4 -Hd 0 -Ni 4 -Nx 15.00 -Ny 24.99 -Nz 0.00 -Ne 0.990822 -Nl MAC -Nw --- -Ma 0 -Md 0 -Ms 4 -Mt 0 
N -t 15.349600 -n 0 -e 0.987491
N -t 15.349600 -n 3 -e 0.990179
N -t 15.349600 -n 5 -e 0.991235
r -t 15.350336033 -Hs 0 -Hd 0 -Ni 0 -Nx 25.00 -Ny 25.00 -Nz 0.00 -Ne 0.987491 -Nl MAC -Nw --- -Ma 0 -Md 0 -Ms 4 -Mt 0 
s -t 15.350592000 -Hs 0 -Hd 4 -Ni 0 -Nx 25.00 -Ny 25.00 -Nz 0.00 -Ne 0.987491 -Nl MAC -Nw --- -Ma 0 -Md 4 -Ms 0 -Mt 0 
N -t 15.350592 -n 3 -e 0.990074
N -t 15.350592 -n 6 -e 0.991216
N -t 15.350592 -n 1 -e 0.990986
N -t 15.350592 -n 4 -e 0.990496
N -t 15.350592 -n 2 -e 0.990448
N -t 15.350592 -n 5 -e 0.991130
r -t 15.350944033 -Hs 4 -Hd 4 -Ni 4 -Nx 15.00 -Ny 24.99 -Nz 0.00 -Ne 0.990496 -Nl MAC -Nw --- -Ma 0 -Md 4 -Ms 0 -Mt 0 
s -t 15.781952000 -Hs 0 -Hd -1 -Ni 0 -Nx 25.00 -Ny 25.00 -Nz 0.00 -Ne 0.987386 -Nl MAC -Nw --- -Ma 0 -Md ffffffff -Ms 0 -Mt 0 
N -t 15.781952 -n 3 -e 0.989824
N -t 15.781952 -n 6 -e 0.990966
N -t 15.781952 -n 1 -e 0.990736
N -t 15.781952 -n 4 -e 0.990246
N -t 15.781952 -n 2 -e 0.990198
N -t 15.781952 -n 5 -e 0.990880
r -t 15.782784033 -Hs 3 -Hd -1 -Ni 3 -Nx 19.99 -Ny 33.66 -Nz 0.00 -Ne 0.989824 -Nl MAC -Nw --- -Ma 0 -Md ffffffff -Ms 0 -Mt 0 
s -t 15.842464033 -Hs 4 -Hd 0 -Ni 4 -Nx 15.00 -Ny 24.99 -Nz 0.00 -Ne 0.990246 -Nl MAC -Nw --- -Ma 0 -Md 0 -Ms 4 -Mt 0 
N -t 15.842464 -n 0 -e 0.986925
N -t 15.842464 -n 3 -e 0.989613
N -t 15.842464 -n 5 -e 0.990669
r -t 15.843168067 -Hs 0 -Hd 0 -Ni 0 -Nx 25.00 -Ny 25.00 -Nz 0.00 -Ne 0.986925 -Nl MAC -Nw --- -Ma 0 -Md 0 -Ms 4 -Mt 0 
s -t 15.843392000 -Hs 0 -Hd 4 -Ni 0 -Nx 25.00 -Ny 25.00 -Nz 0.00 -Ne 0.986925 -Nl MAC -Nw --- -Ma 0 -Md 4 -Ms 0 -Mt 0 
N -t 15.843392 -n 3 -e 0.989507
N -t 15.843392 -n 6 -e 0.990861
N -t 15.843392 -n 1 -e 0.990630
N -t 15.843392 -n 4 -e 0.989930
N -t 15.843392 -n 2 -e 0.990093
N -t 15.843392 -n 5 -e 0.990563
r -t 15.843744033 -Hs 4 -Hd 4 -Ni 4 -Nx 15.00 -Ny 24.99 -Nz 0.00 -Ne 0.989930 -Nl MAC -Nw --- -Ma 0 -Md 4 -Ms 0 -Mt 0 
s -t 15.844032000 -Hs 0 -Hd 4 -Ni 0 -Nx 25.00 -Ny 25.00 -Nz 0.00 -Ne 0.986819 -Nl MAC -Nw --- -Ma 0 -Md 4 -Ms 0 -Mt 0 
N -t 15.844032 -n 3 -e 0.989210
N -t 15.844032 -n 6 -e 0.990563
N -t 15.844032 -n 1 -e 0.990333
N -t 15.844032 -n 4 -e 0.989632
N -t 15.844032 -n 2 -e 0.989795
N -t 15.844032 -n 5 -e 0.990266
r -t 15.845024033 -Hs 4 -Hd 4 -Ni 4 -Nx 15.00 -Ny 24.99 -Nz 0.00 -Ne 0.989632 -Nl MAC -Nw --- -Ma 0 -Md 4 -Ms 0 -Mt 0 
s -t 15.845216033 -Hs 4 -Hd 0 -Ni 4 -Nx 15.00 -Ny 24.99 -Nz 0.00 -Ne 0.989632 -Nl MAC -Nw --- -Ma 0 -Md 0 -Ms 4 -Mt 0 
N -t 15.845216 -n 0 -e 0.986416
N -t 15.845216 -n 3 -e 0.989104
N -t 15.845216 -n 5 -e 0.990160
r -t 15.845568067 -Hs 0 -Hd 0 -Ni 0 -Nx 25.00 -Ny 25.00 -Nz 0.00 -Ne 0.986416 -Nl MAC -Nw --- -Ma 0 -Md 0 -Ms 4 -Mt 0 
s -t 16.351200000 -Hs 5 -Hd 0 -Ni 5 -Nx 20.01 -Ny 16.33 -Nz 0.00 -Ne 0.990064 -Nl MAC -Nw --- -Ma 0 -Md 0 -Ms 5 -Mt 0 
N -t 16.351200 -n 0 -e 0.986195
N -t 16.351200 -n 6 -e 0.990342
N -t 16.351200 -n 4 -e 0.989306
r -t 16.351936033 -Hs 0 -Hd 0 -Ni 0 -Nx 25.00 -Ny 25.00 -Nz 0.00 -Ne 0.986195 -Nl MAC -Nw --- -Ma 0 -Md 0 -Ms 5 -Mt 0 
s -t 16.352192000 -Hs 0 -Hd 5 -Ni 0 -Nx 25.00 -Ny 25.00 -Nz 0.00 -Ne 0.986195 -Nl MAC -Nw --- -Ma 0 -Md 5 -Ms 0 -Mt 0 
N -t 16.352192 -n 3 -e 0.988998
N -t 16.352192 -n 6 -e 0.990237
N -t 16.352192 -n 1 -e 0.990227
N -t 16.352192 -n 4 -e 0.989200
N -t 16.352192 -n 2 -e 0.989690
N -t 16.352192 -n 5 -e 0.989738
r -t 16.352544033 -Hs 5 -Hd 5 -Ni 5 -Nx 20.01 -Ny 16.33 -Nz 0.00 -Ne 0.989738 -Nl MAC -Nw --- -Ma 0 -Md 5 -Ms 0 -Mt 0 
s -t 16.844064033 -Hs 5 -Hd 0 -Ni 5 -Nx 20.01 -Ny 16.33 -Nz 0.00 -Ne 0.989738 -Nl MAC -Nw --- -Ma 0 -Md 0 -Ms 5 -Mt 0 
N -t 16.844064 -n 0 -e 0.985878
N -t 16.844064 -n 6 -e 0.990026
N -t 16.844064 -n 4 -e 0.988989
r -t 16.844768067 -Hs 0 -Hd 0 -Ni 0 -Nx 25.00 -Ny 25.00 -Nz 0.00 -Ne 0.985878 -Nl MAC -Nw --- -Ma 0 -Md 0 -Ms 5 -Mt 0 
s -t 16.844992000 -Hs 0 -Hd 5 -Ni 0 -Nx 25.00 -Ny 25.00 -Nz 0.00 -Ne 0.985878 -Nl MAC -Nw --- -Ma 0 -Md 5 -Ms 0 -Mt 0 
N -t 16.844992 -n 3 -e 0.988893
N -t 16.844992 -n 6 -e 0.989920
N -t 16.844992 -n 1 -e 0.990122
N -t 16.844992 -n 4 -e 0.988883
N -t 16.844992 -n 2 -e 0.989584
N -t 16.844992 -n 5 -e 0.989421
r -t 16.845344033 -Hs 5 -Hd 5 -Ni 5 -Nx 20.01 -Ny 16.33 -Nz 0.00 -Ne 0.989421 -Nl MAC -Nw --- -Ma 0 -Md 5 -Ms 0 -Mt 0 
s -t 16.845632000 -Hs 0 -Hd 5 -Ni 0 -Nx 25.00 -Ny 25.00 -Nz 0.00 -Ne 0.985773 -Nl MAC -Nw --- -Ma 0 -Md 5 -Ms 0 -Mt 0 
N -t 16.845632 -n 3 -e 0.988595
N -t 16.845632 -n 6 -e 0.989622
N -t 16.845632 -n 1 -e 0.989824
N -t 16.845632 -n 4 -e 0.988586
N -t 16.845632 -n 2 -e 0.989286
N -t 16.845632 -n 5 -e 0.989123
r -t 16.846624033 -Hs 5 -Hd 5 -Ni 5 -Nx 20.01 -Ny 16.33 -Nz 0.00 -Ne 0.989123 -Nl MAC -Nw --- -Ma 0 -Md 5 -Ms 0 -Mt 0 
s -t 16.846816033 -Hs 5 -Hd 0 -Ni 5 -Nx 20.01 -Ny 16.33 -Nz 0.00 -Ne 0.989123 -Nl MAC -Nw --- -Ma 0 -Md 0 -Ms 5 -Mt 0 
N -t 16.846816 -n 0 -e 0.985370
N -t 16.846816 -n 6 -e 0.989517
N -t 16.846816 -n 4 -e 0.988480
r -t 16.847168067 -Hs 0 -Hd 0 -Ni 0 -Nx 25.00 -Ny 25.00 -Nz 0.00 -Ne 0.985370 -Nl MAC -Nw --- -Ma 0 -Md 0 -Ms 5 -Mt 0 
s -t 17.298400000 -Hs 1 -Hd -1 -Ni 1 -Nx 35.00 -Ny 25.00 -Nz 0.00 -Ne 0.989728 -Nl MAC -Nw --- -Ma 0 -Md ffffffff -Ms 1 -Mt 0 
N -t 17.298400 -n 6 -e 0.989382
N -t 17.298400 -n 0 -e 0.985235
N -t 17.298400 -n 2 -e 0.989152
s -t 17.350560000 -Hs 6 -Hd 0 -Ni 6 -Nx 30.02 -Ny 16.35 -Nz 0.00 -Ne 0.989286 -Nl MAC -Nw --- -Ma 0 -Md 0 -Ms 6 -Mt 0 
N -t 17.350560 -n 1 -e 0.989373
N -t 17.350560 -n 0 -e 0.985014
N -t 17.350560 -n 5 -e 0.988797
r -t 17.351296033 -Hs 0 -Hd 0 -Ni 0 -Nx 25.00 -Ny 25.00 -Nz 0.00 -Ne 0.985014 -Nl MAC -Nw --- -Ma 0 -Md 0 -Ms 6 -Mt 0 
s -t 17.351552000 -Hs 0 -Hd 6 -Ni 0 -Nx 25.00 -Ny 25.00 -Nz 0.00 -Ne 0.985014 -Nl MAC -Nw --- -Ma 0 -Md 6 -Ms 0 -Mt 0 
N -t 17.351552 -n 3 -e 0.988490
N -t 17.351552 -n 6 -e 0.988960
N -t 17.351552 -n 1 -e 0.989267
N -t 17.351552 -n 4 -e 0.988374
N -t 17.351552 -n 2 -e 0.989046
N -t 17.351552 -n 5 -e 0.988691
r -t 17.351904033 -Hs 6 -Hd 6 -Ni 6 -Nx 30.02 -Ny 16.35 -Nz 0.00 -Ne 0.988960 -Nl MAC -Nw --- -Ma 0 -Md 6 -Ms 0 -Mt 0 
s -t 17.748032000 -Hs 0 -Hd -1 -Ni 0 -Nx 25.00 -Ny 25.00 -Nz 0.00 -Ne 0.984909 -Nl MAC -Nw --- -Ma 0 -Md ffffffff -Ms 0 -Mt 0 
N -t 17.748032 -n 3 -e 0.988240
N -t 17.748032 -n 6 -e 0.988710
N -t 17.748032 -n 1 -e 0.989018
N -t 17.748032 -n 4 -e 0.988125
N -t 17.748032 -n 2 -e 0.988797
N -t 17.748032 -n 5 -e 0.988442
r -t 17.748864033 -Hs 3 -Hd -1 -Ni 3 -Nx 19.99 -Ny 33.66 -Nz 0.00 -Ne 0.988240 -Nl MAC -Nw --- -Ma 0 -Md ffffffff -Ms 0 -Mt 0 
r -t 17.748864033 -Hs 4 -Hd -1 -Ni 4 -Nx 15.00 -Ny 24.99 -Nz 0.00 -Ne 0.988125 -Nl MAC -Nw --- -Ma 0 -Md ffffffff -Ms 0 -Mt 0 
r -t 17.748864033 -Hs 5 -Hd -1 -Ni 5 -Nx 20.01 -Ny 16.33 -Nz 0.00 -Ne 0.988442 -Nl MAC -Nw --- -Ma 0 -Md ffffffff -Ms 0 -Mt 0 
s -t 17.843424033 -Hs 6 -Hd 0 -Ni 6 -Nx 30.02 -Ny 16.35 -Nz 0.00 -Ne 0.988710 -Nl MAC -Nw --- -Ma 0 -Md 0 -Ms 6 -Mt 0 
N -t 17.843424 -n 1 -e 0.988806
N -t 17.843424 -n 0 -e 0.984448
N -t 17.843424 -n 5 -e 0.988230
r -t 17.844128067 -Hs 0 -Hd 0 -Ni 0 -Nx 25.00 -Ny 25.00 -Nz 0.00 -Ne 0.984448 -Nl MAC -Nw --- -Ma 0 -Md 0 -Ms 6 -Mt 0 
s -t 17.844352000 -Hs 0 -Hd 6 -Ni 0 -Nx 25.00 -Ny 25.00 -Nz 0.00 -Ne 0.984448 -Nl MAC -Nw --- -Ma 0 -Md 6 -Ms 0 -Mt 0 
N -t 17.844352 -n 3 -e 0.988134
N -t 17.844352 -n 6 -e 0.988394
N -t 17.844352 -n 1 -e 0.988701
N -t 17.844352 -n 4 -e 0.988019
N -t 17.844352 -n 2 -e 0.988691
N -t 17.844352 -n 5 -e 0.988125
r -t 17.844704033 -Hs 6 -Hd 6 -Ni 6 -Nx 30.02 -Ny 16.35 -Nz 0.00 -Ne 0.988394 -Nl MAC -Nw --- -Ma 0 -Md 6 -Ms 0 -Mt 0 
s -t 17.844992000 -Hs 0 -Hd 6 -Ni 0 -Nx 25.00 -Ny 25.00 -Nz 0.00 -Ne 0.984342 -Nl MAC -Nw --- -Ma 0 -Md 6 -Ms 0 -Mt 0 
N -t 17.844992 -n 3 -e 0.987837
N -t 17.844992 -n 6 -e 0.988096
N -t 17.844992 -n 1 -e 0.988403
N -t 17.844992 -n 4 -e 0.987722
N -t 17.844992 -n 2 -e 0.988394
N -t 17.844992 -n 5 -e 0.987827
r -t 17.845984033 -Hs 6 -Hd 6 -Ni 6 -Nx 30.02 -Ny 16.35 -Nz 0.00 -Ne 0.988096 -Nl MAC -Nw --- -Ma 0 -Md 6 -Ms 0 -Mt 0 
s -t 17.846176033 -Hs 6 -Hd 0 -Ni 6 -Nx 30.02 -Ny 16.35 -Nz 0.00 -Ne 0.988096 -Nl MAC -Nw --- -Ma 0 -Md 0 -Ms 6 -Mt 0 
N -t 17.846176 -n 1 -e 0.988298
N -t 17.846176 -n 0 -e 0.983939
N -t 17.846176 -n 5 -e 0.987722
r -t 17.846528067 -Hs 0 -Hd 0 -Ni 0 -Nx 25.00 -Ny 25.00 -Nz 0.00 -Ne 0.983939 -Nl MAC -Nw --- -Ma 0 -Md 0 -Ms 6 -Mt 0 
s -t 18.298400000 -Hs 2 -Hd -1 -Ni 2 -Nx 30.00 -Ny 33.66 -Nz 0.00 -Ne 0.988298 -Nl MAC -Nw --- -Ma 0 -Md ffffffff -Ms 2 -Mt 0 
N -t 18.298400 -n 0 -e 0.983805
N -t 18.298400 -n 3 -e 0.987702
N -t 18.298400 -n 1 -e 0.988163
d -t 18.298848033 -Hs 1 -Hd -1 -Ni 1 -Nx 35.00 -Ny 25.00 -Nz 0.00 -Ne 0.988163 -Nl MAC -Nw APS -Ma 0 -Md ffffffff -Ms 2 -Mt 0 
s -t 18.502272000 -Hs 0 -Hd -2 -Ni 0 -Nx 25.00 -Ny 25.00 -Nz 0.00 -Ne 0.983613 -Nl MAC -Nw --- -Ma 0 -Md ffffffff -Ms 0 -Mt 800 -Is 0.255 -Id -1.255 -It AODV -Il 55 -If 0 -Ii 0 -Iv 30 -P aodv -Pt 0x2 -Ph 1 -Pb 10 -Pd 3 -Pds 0 -Ps 0 -Pss 22 -Pc REQUEST 
N -t 18.502272 -n 3 -e 0.987117
N -t 18.502272 -n 6 -e 0.987405
N -t 18.502272 -n 1 -e 0.987578
N -t 18.502272 -n 4 -e 0.987136
N -t 18.502272 -n 2 -e 0.987578
N -t 18.502272 -n 5 -e 0.987136
r -t 18.504864033 -Hs 3 -Hd -2 -Ni 3 -Nx 19.99 -Ny 33.66 -Nz 0.00 -Ne 0.987117 -Nl MAC -Nw --- -Ma 0 -Md ffffffff -Ms 0 -Mt 800 -Is 0.255 -Id -1.255 -It AODV -Il 48 -If 0 -Ii 0 -Iv 30 -P aodv -Pt 0x2 -Ph 1 -Pb 10 -Pd 3 -Pds 0 -Ps 0 -Pss 22 -Pc REQUEST 